74
 energy: -214.322981065557 gnorm: 0.000828861589 xtb: 6.7.1 (edcfbbe) - xTB optimised using gfn2
N            2.44899195534023       16.46707591828710       -7.05306984044380
N            3.84399238613342       16.55593634342253       -6.91996109355352
N            4.58644041247231       15.57735447512050       -6.48072249917140
N            4.09948055026022       14.41140277723907       -6.37478363465863
N            4.77296241209703       13.36844197779880       -6.21918819691394
N            4.71451222446625       12.53760947840242       -5.28055605221086
N            5.10761427775463       11.36662778274882       -5.18927216569285
N            6.00698478380816       10.74129816693592       -5.84747271715043
N            6.36677959776876        9.52496052942646       -5.66009087465343
N            7.27508467730697        9.15202821180602       -6.48639278069986
N            7.62203435673842       10.07883574777879       -7.30440488217182
N            6.98754137154640       11.17555073105942       -7.09998324609030
N            7.07500569893487       12.23660086442107       -7.78188651122333
N            6.67466496134859       13.38927930625826       -7.36338762511564
N            7.08014082058997       14.42332597977282       -7.95915924871469
N            6.57577883202130       15.39348580832775       -8.50745518834823
N            6.83505808449660       16.59812880896148       -8.48642517817106
N            6.85527279058397       17.47195213446441       -9.40179648276694
N            6.45739688733990       18.69458695389849       -9.10648134145984
N            6.62571199224097       19.66861920428149       -9.98437366715100
N            7.74026989002893       19.67915052648780      -10.61485670144084
N            7.86177406713853       20.48228250108853      -11.63749571355535
N            9.10296710680063       20.79538825761367      -12.02936156547841
N           10.15011969405753       21.55311532756049      -11.34530591992104
N           10.27637236972298       22.78253334670618      -10.97504156321873
N           10.10680206709093       24.00744089524193      -11.65149950161043
N            8.73361889578060       24.47589859703360      -11.53943731433384
N            9.04954240374806       25.08278098491625      -10.28159280546200
N            8.64317610312755       23.86931741382235       -9.64458112393053
N           10.01444907838863       23.37320378311697       -9.72985574285184
N           10.38304354211222       24.60066416209654      -10.37551320134257
N            7.95300129119744       23.46118569261627      -10.85495327870964
N            6.68032016581230       23.83080929764248      -10.79874881141595
N            2.47416863743168       23.04479256728124      -11.15239578960007
N            2.75945438320197       24.06237590255779      -10.49499013092513
N            6.13260379767185       25.00301122828349      -10.44534663468563
N            4.97338873405892       24.38110180937869      -10.66684328894495
N            5.51690597980747       23.19359473248232      -11.01102172904990
N            3.17922429688014       22.68495479409201      -12.23116741315775
N            2.90006446086180       21.84233709398190      -13.02747885927431
N            2.88898660796815       21.13214474689851      -13.90489767486556
N            4.11967081653657       19.24154674894670      -11.75311648604241
N            5.73159241338639       20.81222757748739      -12.36810495765703
N            6.90404257668072       21.16599014424268      -12.37349626575324
N            8.30988084555005       23.25346031291526      -13.57495054055338
N            7.67773748700534       23.66485971582632      -14.37352291264263
N            5.14030350688264       19.75375040132417      -12.15810013297886
N            3.35495815291492       19.78355065515738      -10.81825750369542
N            2.66503197028636       18.92169678069883      -10.11573364325438
N            1.79685676875458       19.30293921937600       -9.20936393041951
N            1.81722825199707       20.44977372251947       -8.65007749962483
N            2.86450125915743       21.20168534398424       -8.64534640710926
N            4.11343925047734       20.96148680063988       -9.00482358891183
N            4.79687337328103       22.02263122982178       -8.70310410578371
N            5.99485721686810       19.04131356904865       -7.86489301727398
N            5.22433695605368       18.33072229392829       -7.23392308976855
N            4.43733069075793       17.45716580219060       -7.73845938083329
N            4.09397560530184       22.91023870785867       -8.13575961917402
N            2.85040777629942       22.47189078052395       -8.05090060064183
N            1.90232045454043       23.08325142623108       -7.35981851589177
N            0.73143741608866       22.69777778097003       -7.27335044787860
N            0.06297587062959       21.70081498779104       -7.49659722065013
N           -1.03037457404885       21.39033403399299       -7.96062209431660
N           -1.68452465122777       20.28474563374962       -7.70128930528172
N           -1.12834371008260       19.25032564026460       -7.25835862490593
N           -0.00070718255485       18.82065074182876       -7.27123768229233
N            0.86141548156278       18.25172445837373       -6.60978906971486
N            1.94425858749030       17.79404907541176       -7.25583330091678
N            1.95524244801370       16.82920851661783       -8.32931502269752
N            2.64747816314849       16.75224884890693       -9.42782399081905
N            2.89441930584067       17.58707380577447      -10.28718929432989
N            3.77107725114286       24.79780317755511      -10.37935636475658
N           11.02845090790308       20.77143360877131      -12.05508491567034
N           10.11352666751636       20.02049359612532      -12.51113247730541
