
     Program PWSCF v.7.2 starts on  4Apr2026 at 12:57:53 

     This program is part of the open-source Quantum ESPRESSO suite
     for quantum simulation of materials; please cite
         "P. Giannozzi et al., J. Phys.:Condens. Matter 21 395502 (2009);
         "P. Giannozzi et al., J. Phys.:Condens. Matter 29 465901 (2017);
         "P. Giannozzi et al., J. Chem. Phys. 152 154105 (2020);
          URL http://www.quantum-espresso.org", 
     in publications or presentations arising from this work. More details at
     http://www.quantum-espresso.org/quote

     Serial version
     4516 MiB available memory on the printing compute node when the environment starts
 
     Reading input from input.in

     Current dimensions of program PWSCF are:
     Max number of different atomic species (ntypx) = 10
     Max number of k-points (npk) =  40000
     Max angular momentum in pseudopotentials (lmaxx) =  4

     Program PWSCF v.7.2 starts on  4Apr2026 at 12:57:53 

     This program is part of the open-source Quantum ESPRESSO suite
     for quantum simulation of materials; please cite
         "P. Giannozzi et al., J. Phys.:Condens. Matter 21 395502 (2009);
         "P. Giannozzi et al., J. Phys.:Condens. Matter 29 465901 (2017);
         "P. Giannozzi et al., J. Chem. Phys. 152 154105 (2020);
          URL http://www.quantum-espresso.org", 
     in publications or presentations arising from this work. More details at
     http://www.quantum-espresso.org/quote

     Serial version
     4509 MiB available memory on the printing compute node when the environment starts
 
     Reading input from input.in

     Current dimensions of program PWSCF are:
     Max number of different atomic species (ntypx) = 10
     Max number of k-points (npk) =  40000
     Max angular momentum in pseudopotentials (lmaxx) =  4
     file Np.rel-pbe-spn-kjpaw_MS.UPF: wavefunction(s)  6S 6P 6P 5F renormalized
     file N.pbe-n-kjpaw_psl.1.0.0.UPF: wavefunction(s)  2S renormalized
     file U.rel-pbe-spn-kjpaw_MS.UPF: wavefunction(s)  6P 6D 6D 5F 5F renormalized
     file Pu.rel-pbe-spn-kjpaw_MS.UPF: wavefunction(s)  6S 6P 5F renormalized

     IMPORTANT: XC functional enforced from input :
     Exchange-correlation= PBE
                           (   1   4   3   4   0   0   0)
     Any further DFT definition will be discarded
     Please, verify this is what you really want

     Message from routine setup:
     the system is metallic, specify occupations
 
 
     G-vector sticks info
     --------------------
     sticks:   dense  smooth     PW     G-vecs:    dense   smooth      PW
     Sum        6369    6369   1597               382323   382323   47833
 
     Using Slab Decomposition
 


     bravais-lattice index     =            1
     lattice parameter (alat)  =      20.0000  a.u.
     unit-cell volume          =    8000.0000 (a.u.)^3
     number of atoms/cell      =           21
     number of atomic types    =            4
     number of electrons       =       135.00
     number of Kohn-Sham states=          136
     kinetic-energy cutoff     =      50.0000  Ry
     charge density cutoff     =     200.0000  Ry
     scf convergence threshold =      1.0E-06
     mixing beta               =       0.3000
     number of iterations used =            8  plain     mixing
     Exchange-correlation= PBE
                           (   1   4   3   4   0   0   0)
     Non magnetic calculation with spin-orbit


     GPU acceleration is ACTIVE.

     Hubbard projectors: ortho-atomic
     Hubbard parameters of DFT+U (Liechtenstein formulation) in eV:
     U(Np-5f) =  2.0000
     U(U-5f) =  2.0000
     U(Pu-5f) =  2.0000
     DFT+U on averaged j=l+1/2,l-1/2 radial WFs

     Internal variables: lda_plus_u = T, lda_plus_u_kind = 1

     celldm(1)=  20.000000  celldm(2)=   0.000000  celldm(3)=   0.000000
     celldm(4)=   0.000000  celldm(5)=   0.000000  celldm(6)=   0.000000

     crystal axes: (cart. coord. in units of alat)
               a(1) = (   1.000000   0.000000   0.000000 )  
               a(2) = (   0.000000   1.000000   0.000000 )  
               a(3) = (   0.000000   0.000000   1.000000 )  

     reciprocal axes: (cart. coord. in units 2 pi/alat)
               b(1) = (  1.000000  0.000000  0.000000 )  
               b(2) = (  0.000000  1.000000  0.000000 )  
               b(3) = (  0.000000  0.000000  1.000000 )  


     PseudoPot. # 1 for Np read from file:
     ./pseudo/Np.rel-pbe-spn-kjpaw_MS.UPF
     MD5 check sum: e5444c4a7fd8edcaa390479e161b8967
     Pseudo is Projector augmented-wave + core cor, Zval = 15.0
     Generated using 'atomic' code by A. Dal Corso  v.7.2
     Shape of augmentation charge: PSQ
     Using radial grid of 2019 points, 14 beta functions with: 
                l(1) =   0
                l(2) =   0
                l(3) =   1
                l(4) =   1
                l(5) =   1
                l(6) =   1
                l(7) =   2
                l(8) =   2
                l(9) =   2
               l(10) =   2
               l(11) =   3
               l(12) =   3
               l(13) =   3
               l(14) =   3
     Q(r) pseudized with 0 coefficients 


     PseudoPot. # 2 for N  read from file:
     ./pseudo/N.pbe-n-kjpaw_psl.1.0.0.UPF
     MD5 check sum: 14c48229446f9f2d411169a3abcbc3fa
     Pseudo is Projector augmented-wave + core cor, Zval =  5.0
     Generated using &quot;atomic&quot; code by A. Dal Corso  v.6.3
     Shape of augmentation charge: PSQ
     Using radial grid of 1085 points,  4 beta functions with: 
                l(1) =   0
                l(2) =   0
                l(3) =   1
                l(4) =   1
     Q(r) pseudized with 0 coefficients 


     PseudoPot. # 3 for U  read from file:
     ./pseudo/U.rel-pbe-spn-kjpaw_MS.UPF
     MD5 check sum: 26c1e85718202a8f7dc711fcf05381ac
     Pseudo is Projector augmented-wave + core cor, Zval = 14.0
     Generated using 'atomic' code by A. Dal Corso  v.7.2
     Shape of augmentation charge: PSQ
     Using radial grid of 2017 points, 14 beta functions with: 
                l(1) =   0
                l(2) =   0
                l(3) =   1
                l(4) =   1
                l(5) =   1
                l(6) =   1
                l(7) =   2
                l(8) =   2
                l(9) =   2
               l(10) =   2
               l(11) =   3
               l(12) =   3
               l(13) =   3
               l(14) =   3
     Q(r) pseudized with 0 coefficients 


     PseudoPot. # 4 for Pu read from file:
     ./pseudo/Pu.rel-pbe-spn-kjpaw_MS.UPF
     MD5 check sum: 35d53bbbc3a4b0ede578bc35b31c2f81
     Pseudo is Projector augmented-wave + core cor, Zval = 16.0
     Generated using 'atomic' code by A. Dal Corso  v.7.2
     Shape of augmentation charge: PSQ
     Using radial grid of 2019 points, 14 beta functions with: 
                l(1) =   0
                l(2) =   0
                l(3) =   1
                l(4) =   1
                l(5) =   1
                l(6) =   1
                l(7) =   2
                l(8) =   2
                l(9) =   2
               l(10) =   2
               l(11) =   3
               l(12) =   3
               l(13) =   3
               l(14) =   3
     Q(r) pseudized with 0 coefficients 


     atomic species   valence    mass     pseudopotential
        Np            15.00   237.05000     Np( 1.00)
        N              5.00    14.00700     N ( 1.00)
        U             14.00   238.03000     U ( 1.00)
        Pu            16.00   244.06000     Pu( 1.00)

     No symmetry found



   Cartesian axes

     site n.     atom                  positions (alat units)
         1           Np  tau(   1) = (   0.4319980   0.0834314   0.0000000  )
         2           N   tau(   2) = (   0.4254870   0.2846721   0.1423937  )
         3           N   tau(   3) = (   0.4258432   0.2736522   0.2619690  )
         4           N   tau(   4) = (   0.4262003   0.2626322   0.3815442  )
         5           N   tau(   5) = (   0.4273937   0.2257372  -0.2013560  )
         6           N   tau(   6) = (   0.4840562   0.3316101  -0.2013617  )
         7           N   tau(   7) = (   0.5407187   0.4374839  -0.2013683  )
         8           U   tau(   8) = (   0.3637789  -0.0440306   0.0000000  )
         9           N   tau(   9) = (   0.1887921  -0.1526918   0.1456601  )
        10           N   tau(  10) = (   0.1981557  -0.1468780   0.2652353  )
        11           N   tau(  11) = (   0.2075193  -0.1410633   0.3848115  )
        12           N   tau(  12) = (   0.2400415  -0.1208678  -0.2059849  )
        13           N   tau(  13) = (   0.1200203  -0.1247125  -0.2059877  )
        14           N   tau(  14) = (   0.0000000  -0.1285571  -0.2059905  )
        15           Pu  tau(  15) = (   0.5083429  -0.0394008   0.0000000  )
        16           N   tau(  16) = (   0.6838503  -0.1333164  -0.1407232  )
        17           N   tau(  17) = (   0.6741466  -0.1281234  -0.2603003  )
        18           N   tau(  18) = (   0.6644428  -0.1229314  -0.3798775  )
        19           N   tau(  19) = (   0.6324365  -0.1058039   0.1990411  )
        20           N   tau(  20) = (   0.7524578  -0.1019573   0.1990316  )
        21           N   tau(  21) = (   0.8724790  -0.0981099   0.1990222  )

     --------------------------------------------
     DFT-D3 Dispersion Correction (3-body terms):
     --------------------------------------------
       Reference C6 values for interpolation: 

         atom   Coordination number   C6
         N          0.000            50.54
         N          0.994            44.25
         N          2.014            39.35
         N          2.990            31.16
         U          0.000          5443.04
         U          2.888          1507.72
         Np         0.000          6065.95
         Np         2.909          1396.33
         Pu         0.000          5630.47
         Pu         1.921          2102.49

       Values used:

         atom   Coordination number  R0_AB[au]  C6      C8
         Np         4.282            4.114   1396.33 305454.75
         N          1.992            2.478     39.28    866.58
         N          2.133            2.478     38.92    858.65
         N          1.025            2.478     44.24    975.89
         N          2.053            2.478     39.15    863.74
         N          2.129            2.478     38.93    858.91
         N          1.025            2.478     44.24    975.91
         U          4.134            4.153   1507.72 338750.10
         N          1.938            2.478     39.38    868.81
         N          2.105            2.478     39.02    860.72
         N          1.025            2.478     44.24    975.91
         N          1.989            2.478     39.29    866.71
         N          2.101            2.478     39.03    860.95
         N          1.026            2.478     44.24    975.89
         Pu         4.364            4.190   2102.49 494045.25
         N          2.017            2.478     39.23    865.51
         N          2.154            2.478     38.84    856.81
         N          1.026            2.478     44.23    975.86
         N          2.082            2.478     39.08    862.17
         N          2.150            2.478     38.86    857.18
         N          1.027            2.478     44.23    975.84

         Molecular C6 ( Ry / a.u.^6 ) =     54479.48


     number of k points=     1
                       cart. coord. in units 2pi/alat
        k(    1) = (   0.0000000   0.0000000   0.0000000), wk =   1.0000000

     Dense  grid:   382323 G-vectors     FFT dimensions: (  96,  96,  96)

     Estimated max dynamical RAM per process >      12.59 GB
     file Np.rel-pbe-spn-kjpaw_MS.UPF: wavefunction(s)  6S 6P 6P 5F renormalized
     file N.pbe-n-kjpaw_psl.1.0.0.UPF: wavefunction(s)  2S renormalized
     file U.rel-pbe-spn-kjpaw_MS.UPF: wavefunction(s)  6P 6D 6D 5F 5F renormalized
     file Pu.rel-pbe-spn-kjpaw_MS.UPF: wavefunction(s)  6S 6P 5F renormalized

     IMPORTANT: XC functional enforced from input :
     Exchange-correlation= PBE
                           (   1   4   3   4   0   0   0)
     Any further DFT definition will be discarded
     Please, verify this is what you really want

     Message from routine setup:
     the system is metallic, specify occupations
 
 
     G-vector sticks info
     --------------------
     sticks:   dense  smooth     PW     G-vecs:    dense   smooth      PW
     Sum        6369    6369   1597               382323   382323   47833
 
     Using Slab Decomposition
 


     bravais-lattice index     =            1
     lattice parameter (alat)  =      20.0000  a.u.
     unit-cell volume          =    8000.0000 (a.u.)^3
     number of atoms/cell      =           21
     number of atomic types    =            4
     number of electrons       =       135.00
     number of Kohn-Sham states=          136
     kinetic-energy cutoff     =      50.0000  Ry
     charge density cutoff     =     200.0000  Ry
     scf convergence threshold =      1.0E-06
     mixing beta               =       0.3000
     number of iterations used =            8  plain     mixing
     Exchange-correlation= PBE
                           (   1   4   3   4   0   0   0)
     Non magnetic calculation with spin-orbit


     GPU acceleration is ACTIVE.

     Hubbard projectors: ortho-atomic
     Hubbard parameters of DFT+U (Liechtenstein formulation) in eV:
     U(Np-5f) =  2.0000
     U(U-5f) =  2.0000
     U(Pu-5f) =  2.0000
     DFT+U on averaged j=l+1/2,l-1/2 radial WFs

     Internal variables: lda_plus_u = T, lda_plus_u_kind = 1

     celldm(1)=  20.000000  celldm(2)=   0.000000  celldm(3)=   0.000000
     celldm(4)=   0.000000  celldm(5)=   0.000000  celldm(6)=   0.000000

     crystal axes: (cart. coord. in units of alat)
               a(1) = (   1.000000   0.000000   0.000000 )  
               a(2) = (   0.000000   1.000000   0.000000 )  
               a(3) = (   0.000000   0.000000   1.000000 )  

     reciprocal axes: (cart. coord. in units 2 pi/alat)
               b(1) = (  1.000000  0.000000  0.000000 )  
               b(2) = (  0.000000  1.000000  0.000000 )  
               b(3) = (  0.000000  0.000000  1.000000 )  


     PseudoPot. # 1 for Np read from file:
     ./pseudo/Np.rel-pbe-spn-kjpaw_MS.UPF
     MD5 check sum: e5444c4a7fd8edcaa390479e161b8967
     Pseudo is Projector augmented-wave + core cor, Zval = 15.0
     Generated using 'atomic' code by A. Dal Corso  v.7.2
     Shape of augmentation charge: PSQ
     Using radial grid of 2019 points, 14 beta functions with: 
                l(1) =   0
                l(2) =   0
                l(3) =   1
                l(4) =   1
                l(5) =   1
                l(6) =   1
                l(7) =   2
                l(8) =   2
                l(9) =   2
               l(10) =   2
               l(11) =   3
               l(12) =   3
               l(13) =   3
               l(14) =   3
     Q(r) pseudized with 0 coefficients 


     PseudoPot. # 2 for N  read from file:
     ./pseudo/N.pbe-n-kjpaw_psl.1.0.0.UPF
     MD5 check sum: 14c48229446f9f2d411169a3abcbc3fa
     Pseudo is Projector augmented-wave + core cor, Zval =  5.0
     Generated using &quot;atomic&quot; code by A. Dal Corso  v.6.3
     Shape of augmentation charge: PSQ
     Using radial grid of 1085 points,  4 beta functions with: 
                l(1) =   0
                l(2) =   0
                l(3) =   1
                l(4) =   1
     Q(r) pseudized with 0 coefficients 


     PseudoPot. # 3 for U  read from file:
     ./pseudo/U.rel-pbe-spn-kjpaw_MS.UPF
     MD5 check sum: 26c1e85718202a8f7dc711fcf05381ac
     Pseudo is Projector augmented-wave + core cor, Zval = 14.0
     Generated using 'atomic' code by A. Dal Corso  v.7.2
     Shape of augmentation charge: PSQ
     Using radial grid of 2017 points, 14 beta functions with: 
                l(1) =   0
                l(2) =   0
                l(3) =   1
                l(4) =   1
                l(5) =   1
                l(6) =   1
                l(7) =   2
                l(8) =   2
                l(9) =   2
               l(10) =   2
               l(11) =   3
               l(12) =   3
               l(13) =   3
               l(14) =   3
     Q(r) pseudized with 0 coefficients 


     PseudoPot. # 4 for Pu read from file:
     ./pseudo/Pu.rel-pbe-spn-kjpaw_MS.UPF
     MD5 check sum: 35d53bbbc3a4b0ede578bc35b31c2f81
     Pseudo is Projector augmented-wave + core cor, Zval = 16.0
     Generated using 'atomic' code by A. Dal Corso  v.7.2
     Shape of augmentation charge: PSQ
     Using radial grid of 2019 points, 14 beta functions with: 
                l(1) =   0
                l(2) =   0
                l(3) =   1
                l(4) =   1
                l(5) =   1
                l(6) =   1
                l(7) =   2
                l(8) =   2
                l(9) =   2
               l(10) =   2
               l(11) =   3
               l(12) =   3
               l(13) =   3
               l(14) =   3
     Q(r) pseudized with 0 coefficients 


     atomic species   valence    mass     pseudopotential
        Np            15.00   237.05000     Np( 1.00)
        N              5.00    14.00700     N ( 1.00)
        U             14.00   238.03000     U ( 1.00)
        Pu            16.00   244.06000     Pu( 1.00)

     No symmetry found



   Cartesian axes

     site n.     atom                  positions (alat units)
         1           Np  tau(   1) = (   0.4319980   0.0834314   0.0000000  )
         2           N   tau(   2) = (   0.4254870   0.2846721   0.1423937  )
         3           N   tau(   3) = (   0.4258432   0.2736522   0.2619690  )
         4           N   tau(   4) = (   0.4262003   0.2626322   0.3815442  )
         5           N   tau(   5) = (   0.4273937   0.2257372  -0.2013560  )
         6           N   tau(   6) = (   0.4840562   0.3316101  -0.2013617  )
         7           N   tau(   7) = (   0.5407187   0.4374839  -0.2013683  )
         8           U   tau(   8) = (   0.3637789  -0.0440306   0.0000000  )
         9           N   tau(   9) = (   0.1887921  -0.1526918   0.1456601  )
        10           N   tau(  10) = (   0.1981557  -0.1468780   0.2652353  )
        11           N   tau(  11) = (   0.2075193  -0.1410633   0.3848115  )
        12           N   tau(  12) = (   0.2400415  -0.1208678  -0.2059849  )
        13           N   tau(  13) = (   0.1200203  -0.1247125  -0.2059877  )
        14           N   tau(  14) = (   0.0000000  -0.1285571  -0.2059905  )
        15           Pu  tau(  15) = (   0.5083429  -0.0394008   0.0000000  )
        16           N   tau(  16) = (   0.6838503  -0.1333164  -0.1407232  )
        17           N   tau(  17) = (   0.6741466  -0.1281234  -0.2603003  )
        18           N   tau(  18) = (   0.6644428  -0.1229314  -0.3798775  )
        19           N   tau(  19) = (   0.6324365  -0.1058039   0.1990411  )
        20           N   tau(  20) = (   0.7524578  -0.1019573   0.1990316  )
        21           N   tau(  21) = (   0.8724790  -0.0981099   0.1990222  )

     --------------------------------------------
     DFT-D3 Dispersion Correction (3-body terms):
     --------------------------------------------
       Reference C6 values for interpolation: 

         atom   Coordination number   C6
         N          0.000            50.54
         N          0.994            44.25
         N          2.014            39.35
         N          2.990            31.16
         U          0.000          5443.04
         U          2.888          1507.72
         Np         0.000          6065.95
         Np         2.909          1396.33
         Pu         0.000          5630.47
         Pu         1.921          2102.49

       Values used:

         atom   Coordination number  R0_AB[au]  C6      C8
         Np         4.282            4.114   1396.33 305454.75
         N          1.992            2.478     39.28    866.58
         N          2.133            2.478     38.92    858.65
         N          1.025            2.478     44.24    975.89
         N          2.053            2.478     39.15    863.74
         N          2.129            2.478     38.93    858.91
         N          1.025            2.478     44.24    975.91
         U          4.134            4.153   1507.72 338750.10
         N          1.938            2.478     39.38    868.81
         N          2.105            2.478     39.02    860.72
         N          1.025            2.478     44.24    975.91
         N          1.989            2.478     39.29    866.71
         N          2.101            2.478     39.03    860.95
         N          1.026            2.478     44.24    975.89
         Pu         4.364            4.190   2102.49 494045.25
         N          2.017            2.478     39.23    865.51
         N          2.154            2.478     38.84    856.81
         N          1.026            2.478     44.23    975.86
         N          2.082            2.478     39.08    862.17
         N          2.150            2.478     38.86    857.18
         N          1.027            2.478     44.23    975.84

         Molecular C6 ( Ry / a.u.^6 ) =     54479.48


     number of k points=     1
                       cart. coord. in units 2pi/alat
        k(    1) = (   0.0000000   0.0000000   0.0000000), wk =   1.0000000

     Dense  grid:   382323 G-vectors     FFT dimensions: (  96,  96,  96)

     Estimated max dynamical RAM per process >      12.59 GB

     Check: negative core charge=   -0.000018

     Initial potential from superposition of free atoms

     starting charge     134.3900, renormalised to     135.0000

     negative rho (up, down):  1.765E-03 0.000E+00

     Check: negative core charge=   -0.000018

     Initial potential from superposition of free atoms

     starting charge     134.3900, renormalised to     135.0000

     negative rho (up, down):  1.765E-03 0.000E+00

     STARTING HUBBARD OCCUPATIONS:

     ================= HUBBARD OCCUPATIONS ================
     ------------------------ ATOM    1 ------------------------
     Tr[ns(  1)] (up, down, total) =   2.00000  2.00000  4.00000
     eigenvalues:
       0.286  0.286  0.286  0.286  0.286  0.286  0.286  0.286  0.286  0.286  0.286  0.286  0.286  0.286
     eigenvectors (columns):
       1.000  0.000  0.000  0.000  0.000  0.000  0.000  0.000  0.000  0.000  0.000  0.000  0.000  0.000
       0.000  1.000  0.000  0.000  0.000  0.000  0.000  0.000  0.000  0.000  0.000  0.000  0.000  0.000
       0.000  0.000  1.000  0.000  0.000  0.000  0.000  0.000  0.000  0.000  0.000  0.000  0.000  0.000
       0.000  0.000  0.000  1.000  0.000  0.000  0.000  0.000  0.000  0.000  0.000  0.000  0.000  0.000
       0.000  0.000  0.000  0.000  1.000  0.000  0.000  0.000  0.000  0.000  0.000  0.000  0.000  0.000
       0.000  0.000  0.000  0.000  0.000  1.000  0.000  0.000  0.000  0.000  0.000  0.000  0.000  0.000
       0.000  0.000  0.000  0.000  0.000  0.000  1.000  0.000  0.000  0.000  0.000  0.000  0.000  0.000
       0.000  0.000  0.000  0.000  0.000  0.000  0.000  1.000  0.000  0.000  0.000  0.000  0.000  0.000
       0.000  0.000  0.000  0.000  0.000  0.000  0.000  0.000  1.000  0.000  0.000  0.000  0.000  0.000
       0.000  0.000  0.000  0.000  0.000  0.000  0.000  0.000  0.000  1.000  0.000  0.000  0.000  0.000
       0.000  0.000  0.000  0.000  0.000  0.000  0.000  0.000  0.000  0.000  1.000  0.000  0.000  0.000
       0.000  0.000  0.000  0.000  0.000  0.000  0.000  0.000  0.000  0.000  0.000  1.000  0.000  0.000
       0.000  0.000  0.000  0.000  0.000  0.000  0.000  0.000  0.000  0.000  0.000  0.000  1.000  0.000
       0.000  0.000  0.000  0.000  0.000  0.000  0.000  0.000  0.000  0.000  0.000  0.000  0.000  1.000
     occupations, | n_(i1, i2)^(sigma1, sigma2) |:
       0.286  0.000  0.000  0.000  0.000  0.000  0.000  0.000  0.000  0.000  0.000  0.000  0.000  0.000
       0.000  0.286  0.000  0.000  0.000  0.000  0.000  0.000  0.000  0.000  0.000  0.000  0.000  0.000
       0.000  0.000  0.286  0.000  0.000  0.000  0.000  0.000  0.000  0.000  0.000  0.000  0.000  0.000
       0.000  0.000  0.000  0.286  0.000  0.000  0.000  0.000  0.000  0.000  0.000  0.000  0.000  0.000
       0.000  0.000  0.000  0.000  0.286  0.000  0.000  0.000  0.000  0.000  0.000  0.000  0.000  0.000
       0.000  0.000  0.000  0.000  0.000  0.286  0.000  0.000  0.000  0.000  0.000  0.000  0.000  0.000
       0.000  0.000  0.000  0.000  0.000  0.000  0.286  0.000  0.000  0.000  0.000  0.000  0.000  0.000
       0.000  0.000  0.000  0.000  0.000  0.000  0.000  0.286  0.000  0.000  0.000  0.000  0.000  0.000
       0.000  0.000  0.000  0.000  0.000  0.000  0.000  0.000  0.286  0.000  0.000  0.000  0.000  0.000
       0.000  0.000  0.000  0.000  0.000  0.000  0.000  0.000  0.000  0.286  0.000  0.000  0.000  0.000
       0.000  0.000  0.000  0.000  0.000  0.000  0.000  0.000  0.000  0.000  0.286  0.000  0.000  0.000
       0.000  0.000  0.000  0.000  0.000  0.000  0.000  0.000  0.000  0.000  0.000  0.286  0.000  0.000
       0.000  0.000  0.000  0.000  0.000  0.000  0.000  0.000  0.000  0.000  0.000  0.000  0.286  0.000
       0.000  0.000  0.000  0.000  0.000  0.000  0.000  0.000  0.000  0.000  0.000  0.000  0.000  0.286
     Atomic magnetic moment mx, my, mz =     0.000000    0.000000    0.000000
     ------------------------ ATOM    8 ------------------------
     Tr[ns(  8)] (up, down, total) =   1.50000  1.50000  3.00000
     eigenvalues:
       0.214  0.214  0.214  0.214  0.214  0.214  0.214  0.214  0.214  0.214  0.214  0.214  0.214  0.214
     eigenvectors (columns):
       1.000  0.000  0.000  0.000  0.000  0.000  0.000  0.000  0.000  0.000  0.000  0.000  0.000  0.000
       0.000  1.000  0.000  0.000  0.000  0.000  0.000  0.000  0.000  0.000  0.000  0.000  0.000  0.000
       0.000  0.000  1.000  0.000  0.000  0.000  0.000  0.000  0.000  0.000  0.000  0.000  0.000  0.000
       0.000  0.000  0.000  1.000  0.000  0.000  0.000  0.000  0.000  0.000  0.000  0.000  0.000  0.000
       0.000  0.000  0.000  0.000  1.000  0.000  0.000  0.000  0.000  0.000  0.000  0.000  0.000  0.000
       0.000  0.000  0.000  0.000  0.000  1.000  0.000  0.000  0.000  0.000  0.000  0.000  0.000  0.000
       0.000  0.000  0.000  0.000  0.000  0.000  1.000  0.000  0.000  0.000  0.000  0.000  0.000  0.000
       0.000  0.000  0.000  0.000  0.000  0.000  0.000  1.000  0.000  0.000  0.000  0.000  0.000  0.000
       0.000  0.000  0.000  0.000  0.000  0.000  0.000  0.000  1.000  0.000  0.000  0.000  0.000  0.000
       0.000  0.000  0.000  0.000  0.000  0.000  0.000  0.000  0.000  1.000  0.000  0.000  0.000  0.000
       0.000  0.000  0.000  0.000  0.000  0.000  0.000  0.000  0.000  0.000  1.000  0.000  0.000  0.000
       0.000  0.000  0.000  0.000  0.000  0.000  0.000  0.000  0.000  0.000  0.000  1.000  0.000  0.000
       0.000  0.000  0.000  0.000  0.000  0.000  0.000  0.000  0.000  0.000  0.000  0.000  1.000  0.000
       0.000  0.000  0.000  0.000  0.000  0.000  0.000  0.000  0.000  0.000  0.000  0.000  0.000  1.000
     occupations, | n_(i1, i2)^(sigma1, sigma2) |:
       0.214  0.000  0.000  0.000  0.000  0.000  0.000  0.000  0.000  0.000  0.000  0.000  0.000  0.000
       0.000  0.214  0.000  0.000  0.000  0.000  0.000  0.000  0.000  0.000  0.000  0.000  0.000  0.000
       0.000  0.000  0.214  0.000  0.000  0.000  0.000  0.000  0.000  0.000  0.000  0.000  0.000  0.000
       0.000  0.000  0.000  0.214  0.000  0.000  0.000  0.000  0.000  0.000  0.000  0.000  0.000  0.000
       0.000  0.000  0.000  0.000  0.214  0.000  0.000  0.000  0.000  0.000  0.000  0.000  0.000  0.000
       0.000  0.000  0.000  0.000  0.000  0.214  0.000  0.000  0.000  0.000  0.000  0.000  0.000  0.000
       0.000  0.000  0.000  0.000  0.000  0.000  0.214  0.000  0.000  0.000  0.000  0.000  0.000  0.000
       0.000  0.000  0.000  0.000  0.000  0.000  0.000  0.214  0.000  0.000  0.000  0.000  0.000  0.000
       0.000  0.000  0.000  0.000  0.000  0.000  0.000  0.000  0.214  0.000  0.000  0.000  0.000  0.000
       0.000  0.000  0.000  0.000  0.000  0.000  0.000  0.000  0.000  0.214  0.000  0.000  0.000  0.000
       0.000  0.000  0.000  0.000  0.000  0.000  0.000  0.000  0.000  0.000  0.214  0.000  0.000  0.000
       0.000  0.000  0.000  0.000  0.000  0.000  0.000  0.000  0.000  0.000  0.000  0.214  0.000  0.000
       0.000  0.000  0.000  0.000  0.000  0.000  0.000  0.000  0.000  0.000  0.000  0.000  0.214  0.000
       0.000  0.000  0.000  0.000  0.000  0.000  0.000  0.000  0.000  0.000  0.000  0.000  0.000  0.214
     Atomic magnetic moment mx, my, mz =     0.000000    0.000000    0.000000
     ------------------------ ATOM   15 ------------------------
     Tr[ns( 15)] (up, down, total) =   3.00000  3.00000  6.00000
     eigenvalues:
       0.429  0.429  0.429  0.429  0.429  0.429  0.429  0.429  0.429  0.429  0.429  0.429  0.429  0.429
     eigenvectors (columns):
       1.000  0.000  0.000  0.000  0.000  0.000  0.000  0.000  0.000  0.000  0.000  0.000  0.000  0.000
       0.000  1.000  0.000  0.000  0.000  0.000  0.000  0.000  0.000  0.000  0.000  0.000  0.000  0.000
       0.000  0.000  1.000  0.000  0.000  0.000  0.000  0.000  0.000  0.000  0.000  0.000  0.000  0.000
       0.000  0.000  0.000  1.000  0.000  0.000  0.000  0.000  0.000  0.000  0.000  0.000  0.000  0.000
       0.000  0.000  0.000  0.000  1.000  0.000  0.000  0.000  0.000  0.000  0.000  0.000  0.000  0.000
       0.000  0.000  0.000  0.000  0.000  1.000  0.000  0.000  0.000  0.000  0.000  0.000  0.000  0.000
       0.000  0.000  0.000  0.000  0.000  0.000  1.000  0.000  0.000  0.000  0.000  0.000  0.000  0.000
       0.000  0.000  0.000  0.000  0.000  0.000  0.000  1.000  0.000  0.000  0.000  0.000  0.000  0.000
       0.000  0.000  0.000  0.000  0.000  0.000  0.000  0.000  1.000  0.000  0.000  0.000  0.000  0.000
       0.000  0.000  0.000  0.000  0.000  0.000  0.000  0.000  0.000  1.000  0.000  0.000  0.000  0.000
       0.000  0.000  0.000  0.000  0.000  0.000  0.000  0.000  0.000  0.000  1.000  0.000  0.000  0.000
       0.000  0.000  0.000  0.000  0.000  0.000  0.000  0.000  0.000  0.000  0.000  1.000  0.000  0.000
       0.000  0.000  0.000  0.000  0.000  0.000  0.000  0.000  0.000  0.000  0.000  0.000  1.000  0.000
       0.000  0.000  0.000  0.000  0.000  0.000  0.000  0.000  0.000  0.000  0.000  0.000  0.000  1.000
     occupations, | n_(i1, i2)^(sigma1, sigma2) |:
       0.429  0.000  0.000  0.000  0.000  0.000  0.000  0.000  0.000  0.000  0.000  0.000  0.000  0.000
       0.000  0.429  0.000  0.000  0.000  0.000  0.000  0.000  0.000  0.000  0.000  0.000  0.000  0.000
       0.000  0.000  0.429  0.000  0.000  0.000  0.000  0.000  0.000  0.000  0.000  0.000  0.000  0.000
       0.000  0.000  0.000  0.429  0.000  0.000  0.000  0.000  0.000  0.000  0.000  0.000  0.000  0.000
       0.000  0.000  0.000  0.000  0.429  0.000  0.000  0.000  0.000  0.000  0.000  0.000  0.000  0.000
       0.000  0.000  0.000  0.000  0.000  0.429  0.000  0.000  0.000  0.000  0.000  0.000  0.000  0.000
       0.000  0.000  0.000  0.000  0.000  0.000  0.429  0.000  0.000  0.000  0.000  0.000  0.000  0.000
       0.000  0.000  0.000  0.000  0.000  0.000  0.000  0.429  0.000  0.000  0.000  0.000  0.000  0.000
       0.000  0.000  0.000  0.000  0.000  0.000  0.000  0.000  0.429  0.000  0.000  0.000  0.000  0.000
       0.000  0.000  0.000  0.000  0.000  0.000  0.000  0.000  0.000  0.429  0.000  0.000  0.000  0.000
       0.000  0.000  0.000  0.000  0.000  0.000  0.000  0.000  0.000  0.000  0.429  0.000  0.000  0.000
       0.000  0.000  0.000  0.000  0.000  0.000  0.000  0.000  0.000  0.000  0.000  0.429  0.000  0.000
       0.000  0.000  0.000  0.000  0.000  0.000  0.000  0.000  0.000  0.000  0.000  0.000  0.429  0.000
       0.000  0.000  0.000  0.000  0.000  0.000  0.000  0.000  0.000  0.000  0.000  0.000  0.000  0.429
     Atomic magnetic moment mx, my, mz =     0.000000    0.000000    0.000000

     Number of occupied Hubbard levels =   13.0000

     STARTING HUBBARD OCCUPATIONS:

     ================= HUBBARD OCCUPATIONS ================
     ------------------------ ATOM    1 ------------------------
     Tr[ns(  1)] (up, down, total) =   2.00000  2.00000  4.00000
     eigenvalues:
       0.286  0.286  0.286  0.286  0.286  0.286  0.286  0.286  0.286  0.286  0.286  0.286  0.286  0.286
     eigenvectors (columns):
       1.000  0.000  0.000  0.000  0.000  0.000  0.000  0.000  0.000  0.000  0.000  0.000  0.000  0.000
       0.000  1.000  0.000  0.000  0.000  0.000  0.000  0.000  0.000  0.000  0.000  0.000  0.000  0.000
       0.000  0.000  1.000  0.000  0.000  0.000  0.000  0.000  0.000  0.000  0.000  0.000  0.000  0.000
       0.000  0.000  0.000  1.000  0.000  0.000  0.000  0.000  0.000  0.000  0.000  0.000  0.000  0.000
       0.000  0.000  0.000  0.000  1.000  0.000  0.000  0.000  0.000  0.000  0.000  0.000  0.000  0.000
       0.000  0.000  0.000  0.000  0.000  1.000  0.000  0.000  0.000  0.000  0.000  0.000  0.000  0.000
       0.000  0.000  0.000  0.000  0.000  0.000  1.000  0.000  0.000  0.000  0.000  0.000  0.000  0.000
       0.000  0.000  0.000  0.000  0.000  0.000  0.000  1.000  0.000  0.000  0.000  0.000  0.000  0.000
       0.000  0.000  0.000  0.000  0.000  0.000  0.000  0.000  1.000  0.000  0.000  0.000  0.000  0.000
       0.000  0.000  0.000  0.000  0.000  0.000  0.000  0.000  0.000  1.000  0.000  0.000  0.000  0.000
       0.000  0.000  0.000  0.000  0.000  0.000  0.000  0.000  0.000  0.000  1.000  0.000  0.000  0.000
       0.000  0.000  0.000  0.000  0.000  0.000  0.000  0.000  0.000  0.000  0.000  1.000  0.000  0.000
       0.000  0.000  0.000  0.000  0.000  0.000  0.000  0.000  0.000  0.000  0.000  0.000  1.000  0.000
       0.000  0.000  0.000  0.000  0.000  0.000  0.000  0.000  0.000  0.000  0.000  0.000  0.000  1.000
     occupations, | n_(i1, i2)^(sigma1, sigma2) |:
       0.286  0.000  0.000  0.000  0.000  0.000  0.000  0.000  0.000  0.000  0.000  0.000  0.000  0.000
       0.000  0.286  0.000  0.000  0.000  0.000  0.000  0.000  0.000  0.000  0.000  0.000  0.000  0.000
       0.000  0.000  0.286  0.000  0.000  0.000  0.000  0.000  0.000  0.000  0.000  0.000  0.000  0.000
       0.000  0.000  0.000  0.286  0.000  0.000  0.000  0.000  0.000  0.000  0.000  0.000  0.000  0.000
       0.000  0.000  0.000  0.000  0.286  0.000  0.000  0.000  0.000  0.000  0.000  0.000  0.000  0.000
       0.000  0.000  0.000  0.000  0.000  0.286  0.000  0.000  0.000  0.000  0.000  0.000  0.000  0.000
       0.000  0.000  0.000  0.000  0.000  0.000  0.286  0.000  0.000  0.000  0.000  0.000  0.000  0.000
       0.000  0.000  0.000  0.000  0.000  0.000  0.000  0.286  0.000  0.000  0.000  0.000  0.000  0.000
       0.000  0.000  0.000  0.000  0.000  0.000  0.000  0.000  0.286  0.000  0.000  0.000  0.000  0.000
       0.000  0.000  0.000  0.000  0.000  0.000  0.000  0.000  0.000  0.286  0.000  0.000  0.000  0.000
       0.000  0.000  0.000  0.000  0.000  0.000  0.000  0.000  0.000  0.000  0.286  0.000  0.000  0.000
       0.000  0.000  0.000  0.000  0.000  0.000  0.000  0.000  0.000  0.000  0.000  0.286  0.000  0.000
       0.000  0.000  0.000  0.000  0.000  0.000  0.000  0.000  0.000  0.000  0.000  0.000  0.286  0.000
       0.000  0.000  0.000  0.000  0.000  0.000  0.000  0.000  0.000  0.000  0.000  0.000  0.000  0.286
     Atomic magnetic moment mx, my, mz =     0.000000    0.000000    0.000000
     ------------------------ ATOM    8 ------------------------
     Tr[ns(  8)] (up, down, total) =   1.50000  1.50000  3.00000
     eigenvalues:
       0.214  0.214  0.214  0.214  0.214  0.214  0.214  0.214  0.214  0.214  0.214  0.214  0.214  0.214
     eigenvectors (columns):
       1.000  0.000  0.000  0.000  0.000  0.000  0.000  0.000  0.000  0.000  0.000  0.000  0.000  0.000
       0.000  1.000  0.000  0.000  0.000  0.000  0.000  0.000  0.000  0.000  0.000  0.000  0.000  0.000
       0.000  0.000  1.000  0.000  0.000  0.000  0.000  0.000  0.000  0.000  0.000  0.000  0.000  0.000
       0.000  0.000  0.000  1.000  0.000  0.000  0.000  0.000  0.000  0.000  0.000  0.000  0.000  0.000
       0.000  0.000  0.000  0.000  1.000  0.000  0.000  0.000  0.000  0.000  0.000  0.000  0.000  0.000
       0.000  0.000  0.000  0.000  0.000  1.000  0.000  0.000  0.000  0.000  0.000  0.000  0.000  0.000
       0.000  0.000  0.000  0.000  0.000  0.000  1.000  0.000  0.000  0.000  0.000  0.000  0.000  0.000
       0.000  0.000  0.000  0.000  0.000  0.000  0.000  1.000  0.000  0.000  0.000  0.000  0.000  0.000
       0.000  0.000  0.000  0.000  0.000  0.000  0.000  0.000  1.000  0.000  0.000  0.000  0.000  0.000
       0.000  0.000  0.000  0.000  0.000  0.000  0.000  0.000  0.000  1.000  0.000  0.000  0.000  0.000
       0.000  0.000  0.000  0.000  0.000  0.000  0.000  0.000  0.000  0.000  1.000  0.000  0.000  0.000
       0.000  0.000  0.000  0.000  0.000  0.000  0.000  0.000  0.000  0.000  0.000  1.000  0.000  0.000
       0.000  0.000  0.000  0.000  0.000  0.000  0.000  0.000  0.000  0.000  0.000  0.000  1.000  0.000
       0.000  0.000  0.000  0.000  0.000  0.000  0.000  0.000  0.000  0.000  0.000  0.000  0.000  1.000
     occupations, | n_(i1, i2)^(sigma1, sigma2) |:
       0.214  0.000  0.000  0.000  0.000  0.000  0.000  0.000  0.000  0.000  0.000  0.000  0.000  0.000
       0.000  0.214  0.000  0.000  0.000  0.000  0.000  0.000  0.000  0.000  0.000  0.000  0.000  0.000
       0.000  0.000  0.214  0.000  0.000  0.000  0.000  0.000  0.000  0.000  0.000  0.000  0.000  0.000
       0.000  0.000  0.000  0.214  0.000  0.000  0.000  0.000  0.000  0.000  0.000  0.000  0.000  0.000
       0.000  0.000  0.000  0.000  0.214  0.000  0.000  0.000  0.000  0.000  0.000  0.000  0.000  0.000
       0.000  0.000  0.000  0.000  0.000  0.214  0.000  0.000  0.000  0.000  0.000  0.000  0.000  0.000
       0.000  0.000  0.000  0.000  0.000  0.000  0.214  0.000  0.000  0.000  0.000  0.000  0.000  0.000
       0.000  0.000  0.000  0.000  0.000  0.000  0.000  0.214  0.000  0.000  0.000  0.000  0.000  0.000
       0.000  0.000  0.000  0.000  0.000  0.000  0.000  0.000  0.214  0.000  0.000  0.000  0.000  0.000
       0.000  0.000  0.000  0.000  0.000  0.000  0.000  0.000  0.000  0.214  0.000  0.000  0.000  0.000
       0.000  0.000  0.000  0.000  0.000  0.000  0.000  0.000  0.000  0.000  0.214  0.000  0.000  0.000
       0.000  0.000  0.000  0.000  0.000  0.000  0.000  0.000  0.000  0.000  0.000  0.214  0.000  0.000
       0.000  0.000  0.000  0.000  0.000  0.000  0.000  0.000  0.000  0.000  0.000  0.000  0.214  0.000
       0.000  0.000  0.000  0.000  0.000  0.000  0.000  0.000  0.000  0.000  0.000  0.000  0.000  0.214
     Atomic magnetic moment mx, my, mz =     0.000000    0.000000    0.000000
     ------------------------ ATOM   15 ------------------------
     Tr[ns( 15)] (up, down, total) =   3.00000  3.00000  6.00000
     eigenvalues:
       0.429  0.429  0.429  0.429  0.429  0.429  0.429  0.429  0.429  0.429  0.429  0.429  0.429  0.429
     eigenvectors (columns):
       1.000  0.000  0.000  0.000  0.000  0.000  0.000  0.000  0.000  0.000  0.000  0.000  0.000  0.000
       0.000  1.000  0.000  0.000  0.000  0.000  0.000  0.000  0.000  0.000  0.000  0.000  0.000  0.000
       0.000  0.000  1.000  0.000  0.000  0.000  0.000  0.000  0.000  0.000  0.000  0.000  0.000  0.000
       0.000  0.000  0.000  1.000  0.000  0.000  0.000  0.000  0.000  0.000  0.000  0.000  0.000  0.000
       0.000  0.000  0.000  0.000  1.000  0.000  0.000  0.000  0.000  0.000  0.000  0.000  0.000  0.000
       0.000  0.000  0.000  0.000  0.000  1.000  0.000  0.000  0.000  0.000  0.000  0.000  0.000  0.000
       0.000  0.000  0.000  0.000  0.000  0.000  1.000  0.000  0.000  0.000  0.000  0.000  0.000  0.000
       0.000  0.000  0.000  0.000  0.000  0.000  0.000  1.000  0.000  0.000  0.000  0.000  0.000  0.000
       0.000  0.000  0.000  0.000  0.000  0.000  0.000  0.000  1.000  0.000  0.000  0.000  0.000  0.000
       0.000  0.000  0.000  0.000  0.000  0.000  0.000  0.000  0.000  1.000  0.000  0.000  0.000  0.000
       0.000  0.000  0.000  0.000  0.000  0.000  0.000  0.000  0.000  0.000  1.000  0.000  0.000  0.000
       0.000  0.000  0.000  0.000  0.000  0.000  0.000  0.000  0.000  0.000  0.000  1.000  0.000  0.000
       0.000  0.000  0.000  0.000  0.000  0.000  0.000  0.000  0.000  0.000  0.000  0.000  1.000  0.000
       0.000  0.000  0.000  0.000  0.000  0.000  0.000  0.000  0.000  0.000  0.000  0.000  0.000  1.000
     occupations, | n_(i1, i2)^(sigma1, sigma2) |:
       0.429  0.000  0.000  0.000  0.000  0.000  0.000  0.000  0.000  0.000  0.000  0.000  0.000  0.000
       0.000  0.429  0.000  0.000  0.000  0.000  0.000  0.000  0.000  0.000  0.000  0.000  0.000  0.000
       0.000  0.000  0.429  0.000  0.000  0.000  0.000  0.000  0.000  0.000  0.000  0.000  0.000  0.000
       0.000  0.000  0.000  0.429  0.000  0.000  0.000  0.000  0.000  0.000  0.000  0.000  0.000  0.000
       0.000  0.000  0.000  0.000  0.429  0.000  0.000  0.000  0.000  0.000  0.000  0.000  0.000  0.000
       0.000  0.000  0.000  0.000  0.000  0.429  0.000  0.000  0.000  0.000  0.000  0.000  0.000  0.000
       0.000  0.000  0.000  0.000  0.000  0.000  0.429  0.000  0.000  0.000  0.000  0.000  0.000  0.000
       0.000  0.000  0.000  0.000  0.000  0.000  0.000  0.429  0.000  0.000  0.000  0.000  0.000  0.000
       0.000  0.000  0.000  0.000  0.000  0.000  0.000  0.000  0.429  0.000  0.000  0.000  0.000  0.000
       0.000  0.000  0.000  0.000  0.000  0.000  0.000  0.000  0.000  0.429  0.000  0.000  0.000  0.000
       0.000  0.000  0.000  0.000  0.000  0.000  0.000  0.000  0.000  0.000  0.429  0.000  0.000  0.000
       0.000  0.000  0.000  0.000  0.000  0.000  0.000  0.000  0.000  0.000  0.000  0.429  0.000  0.000
       0.000  0.000  0.000  0.000  0.000  0.000  0.000  0.000  0.000  0.000  0.000  0.000  0.429  0.000
       0.000  0.000  0.000  0.000  0.000  0.000  0.000  0.000  0.000  0.000  0.000  0.000  0.000  0.429
     Atomic magnetic moment mx, my, mz =     0.000000    0.000000    0.000000

     Number of occupied Hubbard levels =   13.0000

     Atomic wfc used for Hubbard projectors are orthogonalized


     Atomic wfc used for Hubbard projectors are orthogonalized

     Starting wfcs are  246 randomized atomic wfcs
     Starting wfcs are  246 randomized atomic wfcs

     total cpu time spent up to now is       32.3 secs

     Self-consistent Calculation

     iteration #  1     ecut=    50.00 Ry     beta= 0.30
     Davidson diagonalization with overlap

     total cpu time spent up to now is       32.9 secs

     Self-consistent Calculation

     iteration #  1     ecut=    50.00 Ry     beta= 0.30
     Davidson diagonalization with overlap
     ethr =  1.00E-02,  avg # of iterations =  5.0
     ethr =  1.00E-02,  avg # of iterations =  5.0

     ================= HUBBARD OCCUPATIONS ================
     ------------------------ ATOM    1 ------------------------
     Tr[ns(  1)] (up, down, total) =   4.97863  5.01482  9.99345
     eigenvalues:
       0.568  0.569  0.592  0.593  0.678  0.689  0.723  0.736  0.747  0.759  0.773  0.789  0.887  0.891
     eigenvectors (columns):
       0.007  0.041  0.008  0.018  0.129 -0.135 -0.086 -0.245 -0.091  0.016 -0.006  0.019 -0.050  0.311
       0.013 -0.010  0.231 -0.253  0.161 -0.380  0.424  0.347 -0.146 -0.033 -0.095  0.152 -0.066 -0.058
       0.005 -0.033 -0.015  0.006 -0.382 -0.065  0.249 -0.141 -0.191  0.077  0.015 -0.066 -0.007  0.014
       0.022 -0.035 -0.006 -0.001  0.101 -0.085 -0.118 -0.114 -0.079  0.100  0.012 -0.091  0.080 -0.385
      -0.233  0.831  0.048  0.017 -0.035 -0.045 -0.051  0.009 -0.075 -0.049 -0.010 -0.016  0.001 -0.032
      -0.166 -0.081  0.596 -0.658 -0.048  0.148 -0.166 -0.175  0.018  0.023 -0.004 -0.012  0.023  0.010
       0.016  0.006  0.081 -0.092 -0.015 -0.022  0.006  0.156  0.150 -0.058 -0.020  0.020 -0.020  0.045
      -0.021  0.003 -0.010 -0.005 -0.221  0.430 -0.169  0.441  0.059 -0.047 -0.147  0.230 -0.294 -0.183
      -0.009  0.034  0.231  0.228 -0.077 -0.042  0.199 -0.211  0.070 -0.314 -0.059  0.207  0.030 -0.100
       0.027 -0.069 -0.027  0.029 -0.186 -0.352 -0.056 -0.070 -0.215 -0.423  0.078  0.548 -0.024 -0.075
       0.049  0.002 -0.003 -0.014 -0.153  0.247 -0.033  0.406  0.019 -0.076 -0.056  0.264  0.368  0.239
      -0.546  0.073  0.084 -0.028  0.037 -0.063  0.012  0.061  0.027 -0.036 -0.030  0.014  0.027  0.014
       0.028  0.114  0.592  0.544  0.040  0.012 -0.101  0.118 -0.077  0.022 -0.041 -0.137 -0.004  0.035
      -0.023  0.070  0.104  0.098 -0.010 -0.032  0.103 -0.083  0.315  0.624  0.436  0.522 -0.049 -0.035
     occupations, | n_(i1, i2)^(sigma1, sigma2) |:
       0.781  0.001  0.018  0.075  0.011  0.003  0.007  0.000  0.028  0.017  0.002  0.003  0.007  0.004
       0.001  0.714  0.006  0.001  0.000  0.041  0.012  0.028  0.006  0.022  0.012  0.007  0.004  0.005
       0.018  0.006  0.710  0.012  0.006  0.008  0.004  0.016  0.013  0.012  0.013  0.008  0.004  0.003
       0.075  0.001  0.012  0.826  0.019  0.001  0.003  0.001  0.010  0.012  0.001  0.000  0.004  0.010
       0.011  0.000  0.006  0.019  0.574  0.001  0.004  0.002  0.006  0.010  0.001  0.000  0.008  0.013
       0.003  0.041  0.008  0.001  0.001  0.610  0.022  0.006  0.001  0.003  0.004  0.010  0.001  0.001
       0.007  0.012  0.004  0.003  0.004  0.022  0.763  0.004  0.003  0.001  0.010  0.014  0.000  0.000
       0.000  0.028  0.016  0.001  0.002  0.006  0.004  0.781  0.000  0.019  0.075  0.011  0.002  0.008
       0.028  0.006  0.013  0.010  0.006  0.001  0.003  0.000  0.716  0.017  0.003  0.003  0.045  0.009
       0.017  0.022  0.012  0.012  0.010  0.003  0.001  0.019  0.017  0.741  0.008  0.006  0.012  0.010
       0.002  0.012  0.013  0.001  0.001  0.004  0.010  0.075  0.003  0.008  0.827  0.019  0.002  0.002
       0.003  0.007  0.008  0.000  0.000  0.010  0.014  0.011  0.003  0.006  0.019  0.574  0.001  0.005
       0.007  0.004  0.004  0.004  0.008  0.001  0.000  0.002  0.045  0.012  0.002  0.001  0.612  0.023
       0.004  0.005  0.003  0.010  0.013  0.001  0.000  0.008  0.009  0.010  0.002  0.005  0.023  0.764
     Atomic magnetic moment mx, my, mz =     0.003865    0.011511   -0.036184
     ------------------------ ATOM    8 ------------------------
     Tr[ns(  8)] (up, down, total) =   4.28378  4.31076  8.59454
     eigenvalues:
       0.485  0.485  0.492  0.501  0.539  0.553  0.580  0.598  0.653  0.654  0.684  0.692  0.838  0.842
     eigenvectors (columns):
      -0.010 -0.003  0.091 -0.014  0.029 -0.283 -0.034  0.056 -0.115  0.048 -0.019  0.161  0.180 -0.067
       0.121 -0.100 -0.031 -0.103 -0.416 -0.229  0.150 -0.053  0.024  0.365 -0.036 -0.046 -0.020  0.064
      -0.156 -0.030  0.359  0.067 -0.190 -0.126 -0.211 -0.105 -0.022  0.233  0.532  0.142 -0.033 -0.073
      -0.135 -0.772 -0.114 -0.053  0.025  0.180 -0.040  0.063  0.067 -0.017  0.029 -0.043  0.125 -0.042
       0.082  0.436 -0.016  0.080 -0.077  0.192  0.003 -0.015  0.154 -0.004  0.065 -0.237  0.173 -0.072
      -0.409 -0.005  0.563  0.043 -0.019  0.008 -0.012  0.024  0.073 -0.152 -0.060 -0.044  0.002  0.036
       0.030  0.046 -0.120 -0.049  0.058  0.050  0.160  0.112 -0.058  0.291  0.463  0.116  0.004  0.002
       0.054  0.009 -0.033 -0.049  0.242 -0.064 -0.241 -0.168 -0.017  0.480 -0.059  0.057 -0.143  0.571
       0.053  0.036  0.095 -0.156  0.284 -0.299  0.009  0.444  0.145 -0.129  0.019 -0.151  0.055  0.021
       0.023 -0.107  0.027 -0.085  0.155 -0.164  0.302 -0.443  0.008 -0.166 -0.120  0.439 -0.128 -0.098
       0.557 -0.143  0.419  0.157 -0.088  0.063 -0.087 -0.015  0.006 -0.237 -0.034  0.031 -0.068  0.348
      -0.380  0.072 -0.170 -0.043 -0.114  0.027  0.108  0.040 -0.012 -0.337  0.031 -0.007 -0.112  0.631
      -0.037 -0.308 -0.090  0.061 -0.184  0.130 -0.171  0.142 -0.072 -0.015  0.049 -0.124  0.041 -0.001
      -0.047  0.058 -0.098  0.274 -0.165  0.113 -0.127  0.361  0.576  0.104 -0.175  0.587 -0.069 -0.009
     occupations, | n_(i1, i2)^(sigma1, sigma2) |:
       0.697  0.012  0.016  0.053  0.088  0.006  0.012  0.001  0.030  0.037  0.000  0.001  0.005  0.006
       0.012  0.574  0.012  0.005  0.009  0.011  0.014  0.036  0.004  0.015  0.010  0.024  0.005  0.003
       0.016  0.012  0.608  0.004  0.005  0.039  0.042  0.048  0.009  0.007  0.014  0.016  0.005  0.003
       0.053  0.005  0.004  0.552  0.109  0.001  0.004  0.001  0.008  0.012  0.001  0.001  0.008  0.016
       0.088  0.009  0.005  0.109  0.690  0.002  0.008  0.003  0.022  0.012  0.001  0.001  0.008  0.019
       0.006  0.011  0.039  0.001  0.002  0.521  0.032  0.004  0.003  0.008  0.008  0.011  0.002  0.002
       0.012  0.014  0.042  0.004  0.008  0.032  0.642  0.005  0.001  0.004  0.017  0.018  0.002  0.000
       0.001  0.036  0.048  0.001  0.003  0.004  0.005  0.691  0.015  0.018  0.055  0.091  0.009  0.011
       0.030  0.004  0.009  0.008  0.022  0.003  0.001  0.015  0.578  0.027  0.004  0.012  0.011  0.015
       0.037  0.015  0.007  0.012  0.012  0.008  0.004  0.018  0.027  0.634  0.005  0.004  0.030  0.041
       0.000  0.010  0.014  0.001  0.001  0.008  0.017  0.055  0.004  0.005  0.551  0.109  0.001  0.004
       0.001  0.024  0.016  0.001  0.001  0.011  0.018  0.091  0.012  0.004  0.109  0.691  0.002  0.007
       0.005  0.005  0.005  0.008  0.008  0.002  0.002  0.009  0.011  0.030  0.001  0.002  0.523  0.031
       0.006  0.003  0.003  0.016  0.019  0.002  0.000  0.011  0.015  0.041  0.004  0.007  0.031  0.642
     Atomic magnetic moment mx, my, mz =     0.018296   -0.011557   -0.026981
     ------------------------ ATOM   15 ------------------------
     Tr[ns( 15)] (up, down, total) =   4.36197  4.38071  8.74268
     eigenvalues:
       0.499  0.503  0.515  0.518  0.543  0.560  0.595  0.614  0.646  0.651  0.704  0.706  0.843  0.845
     eigenvectors (columns):
       0.047 -0.022  0.003 -0.018 -0.027  0.195  0.010 -0.285 -0.272  0.315  0.072 -0.142 -0.250 -0.008
       0.159 -0.146  0.034  0.083 -0.082 -0.181 -0.338 -0.021  0.091 -0.012 -0.002  0.017  0.053 -0.072
      -0.090 -0.099 -0.147 -0.173 -0.160 -0.115 -0.179  0.036 -0.142 -0.228  0.232  0.167  0.072 -0.174
      -0.131 -0.430  0.208 -0.102  0.050 -0.087  0.029 -0.021  0.188 -0.126 -0.028  0.034 -0.211 -0.031
      -0.095 -0.327  0.160  0.035  0.005  0.109 -0.048 -0.042 -0.242  0.207  0.120 -0.151  0.230  0.001
      -0.096  0.288  0.010  0.155  0.142 -0.135 -0.415 -0.138 -0.064 -0.159 -0.076 -0.043  0.036 -0.062
       0.097 -0.034  0.303  0.105 -0.007  0.072 -0.022 -0.079  0.079  0.167 -0.062 -0.054  0.034 -0.048
       0.019 -0.031 -0.011  0.032 -0.032  0.132 -0.148 -0.135  0.198  0.191 -0.012 -0.020  0.262 -0.167
      -0.043 -0.031 -0.134  0.112 -0.038  0.450  0.199  0.016  0.211 -0.301  0.076  0.001 -0.047 -0.063
       0.223  0.262  0.186 -0.150  0.117 -0.370  0.302 -0.228  0.137  0.041 -0.254  0.258 -0.099 -0.097
       0.315 -0.091 -0.118  0.142 -0.150 -0.138  0.039 -0.025 -0.159 -0.097  0.033  0.023  0.176 -0.106
       0.266 -0.107 -0.198  0.125 -0.060 -0.005 -0.038 -0.042  0.057  0.052 -0.136 -0.139 -0.262  0.209
      -0.197 -0.175 -0.077 -0.012  0.082 -0.192  0.230 -0.215  0.071 -0.017 -0.025  0.042 -0.031 -0.031
      -0.188 -0.150 -0.096  0.313 -0.062  0.187 -0.086  0.142 -0.244  0.177 -0.477  0.663 -0.081 -0.065
     occupations, | n_(i1, i2)^(sigma1, sigma2) |:
       0.698  0.009  0.006  0.056  0.082  0.003  0.006  0.001  0.030  0.048  0.001  0.001  0.005  0.004
       0.009  0.567  0.007  0.001  0.006  0.011  0.020  0.035  0.005  0.002  0.009  0.023  0.002  0.003
       0.006  0.007  0.611  0.003  0.004  0.035  0.055  0.046  0.021  0.003  0.019  0.016  0.012  0.008
       0.056  0.001  0.003  0.602  0.117  0.006  0.001  0.000  0.009  0.017  0.001  0.001  0.009  0.018
       0.082  0.006  0.004  0.117  0.670  0.003  0.004  0.002  0.024  0.014  0.000  0.000  0.009  0.024
       0.003  0.011  0.035  0.006  0.003  0.553  0.033  0.009  0.003  0.003  0.007  0.008  0.001  0.002
       0.006  0.020  0.055  0.001  0.004  0.033  0.660  0.006  0.006  0.004  0.017  0.025  0.003  0.001
       0.001  0.035  0.046  0.000  0.002  0.009  0.006  0.696  0.006  0.011  0.056  0.083  0.002  0.007
       0.030  0.005  0.021  0.009  0.024  0.003  0.006  0.006  0.592  0.008  0.005  0.006  0.023  0.016
       0.048  0.002  0.003  0.017  0.014  0.003  0.004  0.011  0.008  0.600  0.007  0.002  0.033  0.059
       0.001  0.009  0.019  0.001  0.000  0.007  0.017  0.056  0.005  0.007  0.602  0.116  0.004  0.000
       0.001  0.023  0.016  0.001  0.000  0.008  0.025  0.083  0.006  0.002  0.116  0.670  0.004  0.003
       0.005  0.002  0.012  0.009  0.009  0.001  0.003  0.002  0.023  0.033  0.004  0.004  0.559  0.033
       0.004  0.003  0.008  0.018  0.024  0.002  0.001  0.007  0.016  0.059  0.000  0.003  0.033  0.661
     Atomic magnetic moment mx, my, mz =    -0.003041    0.007947   -0.018743

     Number of occupied Hubbard levels =   27.3307

     negative rho (up, down):  2.098E-03 0.000E+00

     ================= HUBBARD OCCUPATIONS ================
     ------------------------ ATOM    1 ------------------------
     Tr[ns(  1)] (up, down, total) =   4.97863  5.01482  9.99345
     eigenvalues:
       0.568  0.569  0.592  0.593  0.678  0.689  0.723  0.736  0.747  0.759  0.773  0.789  0.887  0.891
     eigenvectors (columns):
       0.007  0.041  0.008  0.018  0.129 -0.135 -0.086 -0.245 -0.091  0.016 -0.006  0.019 -0.050  0.311
       0.013 -0.010  0.231 -0.253  0.161 -0.380  0.424  0.347 -0.146 -0.033 -0.095  0.152 -0.066 -0.058
       0.005 -0.033 -0.015  0.006 -0.382 -0.065  0.249 -0.141 -0.191  0.077  0.015 -0.066 -0.007  0.014
       0.022 -0.035 -0.006 -0.001  0.101 -0.085 -0.118 -0.114 -0.079  0.100  0.012 -0.091  0.080 -0.385
      -0.233  0.831  0.048  0.017 -0.035 -0.045 -0.051  0.009 -0.075 -0.049 -0.010 -0.016  0.001 -0.032
      -0.166 -0.081  0.596 -0.658 -0.048  0.148 -0.166 -0.175  0.018  0.023 -0.004 -0.012  0.023  0.010
       0.016  0.006  0.081 -0.092 -0.015 -0.022  0.006  0.156  0.150 -0.058 -0.020  0.020 -0.020  0.045
      -0.021  0.003 -0.010 -0.005 -0.221  0.430 -0.169  0.441  0.059 -0.047 -0.147  0.230 -0.294 -0.183
      -0.009  0.034  0.231  0.228 -0.077 -0.042  0.199 -0.211  0.070 -0.314 -0.059  0.207  0.030 -0.100
       0.027 -0.069 -0.027  0.029 -0.186 -0.352 -0.056 -0.070 -0.215 -0.423  0.078  0.548 -0.024 -0.075
       0.049  0.002 -0.003 -0.014 -0.153  0.247 -0.033  0.406  0.019 -0.076 -0.056  0.264  0.368  0.239
      -0.546  0.073  0.084 -0.028  0.037 -0.063  0.012  0.061  0.027 -0.036 -0.030  0.014  0.027  0.014
       0.028  0.114  0.592  0.544  0.040  0.012 -0.101  0.118 -0.077  0.022 -0.041 -0.137 -0.004  0.035
      -0.023  0.070  0.104  0.098 -0.010 -0.032  0.103 -0.083  0.315  0.624  0.436  0.522 -0.049 -0.035
     occupations, | n_(i1, i2)^(sigma1, sigma2) |:
       0.781  0.001  0.018  0.075  0.011  0.003  0.007  0.000  0.028  0.017  0.002  0.003  0.007  0.004
       0.001  0.714  0.006  0.001  0.000  0.041  0.012  0.028  0.006  0.022  0.012  0.007  0.004  0.005
       0.018  0.006  0.710  0.012  0.006  0.008  0.004  0.016  0.013  0.012  0.013  0.008  0.004  0.003
       0.075  0.001  0.012  0.826  0.019  0.001  0.003  0.001  0.010  0.012  0.001  0.000  0.004  0.010
       0.011  0.000  0.006  0.019  0.574  0.001  0.004  0.002  0.006  0.010  0.001  0.000  0.008  0.013
       0.003  0.041  0.008  0.001  0.001  0.610  0.022  0.006  0.001  0.003  0.004  0.010  0.001  0.001
       0.007  0.012  0.004  0.003  0.004  0.022  0.763  0.004  0.003  0.001  0.010  0.014  0.000  0.000
       0.000  0.028  0.016  0.001  0.002  0.006  0.004  0.781  0.000  0.019  0.075  0.011  0.002  0.008
       0.028  0.006  0.013  0.010  0.006  0.001  0.003  0.000  0.716  0.017  0.003  0.003  0.045  0.009
       0.017  0.022  0.012  0.012  0.010  0.003  0.001  0.019  0.017  0.741  0.008  0.006  0.012  0.010
       0.002  0.012  0.013  0.001  0.001  0.004  0.010  0.075  0.003  0.008  0.827  0.019  0.002  0.002
       0.003  0.007  0.008  0.000  0.000  0.010  0.014  0.011  0.003  0.006  0.019  0.574  0.001  0.005
       0.007  0.004  0.004  0.004  0.008  0.001  0.000  0.002  0.045  0.012  0.002  0.001  0.612  0.023
       0.004  0.005  0.003  0.010  0.013  0.001  0.000  0.008  0.009  0.010  0.002  0.005  0.023  0.764
     Atomic magnetic moment mx, my, mz =     0.003865    0.011511   -0.036184
     ------------------------ ATOM    8 ------------------------
     Tr[ns(  8)] (up, down, total) =   4.28378  4.31076  8.59454
     eigenvalues:
       0.485  0.485  0.492  0.501  0.539  0.553  0.580  0.598  0.653  0.654  0.684  0.692  0.838  0.842
     eigenvectors (columns):
      -0.010 -0.003  0.091 -0.014  0.029 -0.283 -0.034  0.056 -0.115  0.048 -0.019  0.161  0.180 -0.067
       0.121 -0.100 -0.031 -0.103 -0.416 -0.229  0.150 -0.053  0.024  0.365 -0.036 -0.046 -0.020  0.064
      -0.156 -0.030  0.359  0.067 -0.190 -0.126 -0.211 -0.105 -0.022  0.233  0.532  0.142 -0.033 -0.073
      -0.135 -0.772 -0.114 -0.053  0.025  0.180 -0.040  0.063  0.067 -0.017  0.029 -0.043  0.125 -0.042
       0.082  0.436 -0.016  0.080 -0.077  0.192  0.003 -0.015  0.154 -0.004  0.065 -0.237  0.173 -0.072
      -0.409 -0.005  0.563  0.043 -0.019  0.008 -0.012  0.024  0.073 -0.152 -0.060 -0.044  0.002  0.036
       0.030  0.046 -0.120 -0.049  0.058  0.050  0.160  0.112 -0.058  0.291  0.463  0.116  0.004  0.002
       0.054  0.009 -0.033 -0.049  0.242 -0.064 -0.241 -0.168 -0.017  0.480 -0.059  0.057 -0.143  0.571
       0.053  0.036  0.095 -0.156  0.284 -0.299  0.009  0.444  0.145 -0.129  0.019 -0.151  0.055  0.021
       0.023 -0.107  0.027 -0.085  0.155 -0.164  0.302 -0.443  0.008 -0.166 -0.120  0.439 -0.128 -0.098
       0.557 -0.143  0.419  0.157 -0.088  0.063 -0.087 -0.015  0.006 -0.237 -0.034  0.031 -0.068  0.348
      -0.380  0.072 -0.170 -0.043 -0.114  0.027  0.108  0.040 -0.012 -0.337  0.031 -0.007 -0.112  0.631
      -0.037 -0.308 -0.090  0.061 -0.184  0.130 -0.171  0.142 -0.072 -0.015  0.049 -0.124  0.041 -0.001
      -0.047  0.058 -0.098  0.274 -0.165  0.113 -0.127  0.361  0.576  0.104 -0.175  0.587 -0.069 -0.009
     occupations, | n_(i1, i2)^(sigma1, sigma2) |:
       0.697  0.012  0.016  0.053  0.088  0.006  0.012  0.001  0.030  0.037  0.000  0.001  0.005  0.006
       0.012  0.574  0.012  0.005  0.009  0.011  0.014  0.036  0.004  0.015  0.010  0.024  0.005  0.003
       0.016  0.012  0.608  0.004  0.005  0.039  0.042  0.048  0.009  0.007  0.014  0.016  0.005  0.003
       0.053  0.005  0.004  0.552  0.109  0.001  0.004  0.001  0.008  0.012  0.001  0.001  0.008  0.016
       0.088  0.009  0.005  0.109  0.690  0.002  0.008  0.003  0.022  0.012  0.001  0.001  0.008  0.019
       0.006  0.011  0.039  0.001  0.002  0.521  0.032  0.004  0.003  0.008  0.008  0.011  0.002  0.002
       0.012  0.014  0.042  0.004  0.008  0.032  0.642  0.005  0.001  0.004  0.017  0.018  0.002  0.000
       0.001  0.036  0.048  0.001  0.003  0.004  0.005  0.691  0.015  0.018  0.055  0.091  0.009  0.011
       0.030  0.004  0.009  0.008  0.022  0.003  0.001  0.015  0.578  0.027  0.004  0.012  0.011  0.015
       0.037  0.015  0.007  0.012  0.012  0.008  0.004  0.018  0.027  0.634  0.005  0.004  0.030  0.041
       0.000  0.010  0.014  0.001  0.001  0.008  0.017  0.055  0.004  0.005  0.551  0.109  0.001  0.004
       0.001  0.024  0.016  0.001  0.001  0.011  0.018  0.091  0.012  0.004  0.109  0.691  0.002  0.007
       0.005  0.005  0.005  0.008  0.008  0.002  0.002  0.009  0.011  0.030  0.001  0.002  0.523  0.031
       0.006  0.003  0.003  0.016  0.019  0.002  0.000  0.011  0.015  0.041  0.004  0.007  0.031  0.642
     Atomic magnetic moment mx, my, mz =     0.018296   -0.011557   -0.026981
     ------------------------ ATOM   15 ------------------------
     Tr[ns( 15)] (up, down, total) =   4.36197  4.38071  8.74268
     eigenvalues:
       0.499  0.503  0.515  0.518  0.543  0.560  0.595  0.614  0.646  0.651  0.704  0.706  0.843  0.845
     eigenvectors (columns):
       0.047 -0.022  0.003 -0.018 -0.027  0.195  0.010 -0.285 -0.272  0.315  0.072 -0.142 -0.250 -0.008
       0.159 -0.146  0.034  0.083 -0.082 -0.181 -0.338 -0.021  0.091 -0.012 -0.002  0.017  0.053 -0.072
      -0.090 -0.099 -0.147 -0.173 -0.160 -0.115 -0.179  0.036 -0.142 -0.228  0.232  0.167  0.072 -0.174
      -0.131 -0.430  0.208 -0.102  0.050 -0.087  0.029 -0.021  0.188 -0.126 -0.028  0.034 -0.211 -0.031
      -0.095 -0.327  0.160  0.035  0.005  0.109 -0.048 -0.042 -0.242  0.207  0.120 -0.151  0.230  0.001
      -0.096  0.288  0.010  0.155  0.142 -0.135 -0.415 -0.138 -0.064 -0.159 -0.076 -0.043  0.036 -0.062
       0.097 -0.034  0.303  0.105 -0.007  0.072 -0.022 -0.079  0.079  0.167 -0.062 -0.054  0.034 -0.048
       0.019 -0.031 -0.011  0.032 -0.032  0.132 -0.148 -0.135  0.198  0.191 -0.012 -0.020  0.262 -0.167
      -0.043 -0.031 -0.134  0.112 -0.038  0.450  0.199  0.016  0.211 -0.301  0.076  0.001 -0.047 -0.063
       0.223  0.262  0.186 -0.150  0.117 -0.370  0.302 -0.228  0.137  0.041 -0.254  0.258 -0.099 -0.097
       0.315 -0.091 -0.118  0.142 -0.150 -0.138  0.039 -0.025 -0.159 -0.097  0.033  0.023  0.176 -0.106
       0.266 -0.107 -0.198  0.125 -0.060 -0.005 -0.038 -0.042  0.057  0.052 -0.136 -0.139 -0.262  0.209
      -0.197 -0.175 -0.077 -0.012  0.082 -0.192  0.230 -0.215  0.071 -0.017 -0.025  0.042 -0.031 -0.031
      -0.188 -0.150 -0.096  0.313 -0.062  0.187 -0.086  0.142 -0.244  0.177 -0.477  0.663 -0.081 -0.065
     occupations, | n_(i1, i2)^(sigma1, sigma2) |:
       0.698  0.009  0.006  0.056  0.082  0.003  0.006  0.001  0.030  0.048  0.001  0.001  0.005  0.004
       0.009  0.567  0.007  0.001  0.006  0.011  0.020  0.035  0.005  0.002  0.009  0.023  0.002  0.003
       0.006  0.007  0.611  0.003  0.004  0.035  0.055  0.046  0.021  0.003  0.019  0.016  0.012  0.008
       0.056  0.001  0.003  0.602  0.117  0.006  0.001  0.000  0.009  0.017  0.001  0.001  0.009  0.018
       0.082  0.006  0.004  0.117  0.670  0.003  0.004  0.002  0.024  0.014  0.000  0.000  0.009  0.024
       0.003  0.011  0.035  0.006  0.003  0.553  0.033  0.009  0.003  0.003  0.007  0.008  0.001  0.002
       0.006  0.020  0.055  0.001  0.004  0.033  0.660  0.006  0.006  0.004  0.017  0.025  0.003  0.001
       0.001  0.035  0.046  0.000  0.002  0.009  0.006  0.696  0.006  0.011  0.056  0.083  0.002  0.007
       0.030  0.005  0.021  0.009  0.024  0.003  0.006  0.006  0.592  0.008  0.005  0.006  0.023  0.016
       0.048  0.002  0.003  0.017  0.014  0.003  0.004  0.011  0.008  0.600  0.007  0.002  0.033  0.059
       0.001  0.009  0.019  0.001  0.000  0.007  0.017  0.056  0.005  0.007  0.602  0.116  0.004  0.000
       0.001  0.023  0.016  0.001  0.000  0.008  0.025  0.083  0.006  0.002  0.116  0.670  0.004  0.003
       0.005  0.002  0.012  0.009  0.009  0.001  0.003  0.002  0.023  0.033  0.004  0.004  0.559  0.033
       0.004  0.003  0.008  0.018  0.024  0.002  0.001  0.007  0.016  0.059  0.000  0.003  0.033  0.661
     Atomic magnetic moment mx, my, mz =    -0.003041    0.007947   -0.018743

     Number of occupied Hubbard levels =   27.3307

     negative rho (up, down):  2.098E-03 0.000E+00

     total cpu time spent up to now is       60.6 secs

     total energy              =   -3695.23645175 Ry
     estimated scf accuracy    <      90.71875233 Ry

     iteration #  2     ecut=    50.00 Ry     beta= 0.30
     Davidson diagonalization with overlap

     total cpu time spent up to now is       61.2 secs

     total energy              =   -3695.23645175 Ry
     estimated scf accuracy    <      90.71875233 Ry

     iteration #  2     ecut=    50.00 Ry     beta= 0.30
     Davidson diagonalization with overlap
     ethr =  1.00E-02,  avg # of iterations =  9.0
     ethr =  1.00E-02,  avg # of iterations =  9.0

     negative rho (up, down):  4.163E-04 0.000E+00

     negative rho (up, down):  4.163E-04 0.000E+00

     total cpu time spent up to now is       95.5 secs

     total energy              =   -3713.44234624 Ry
     estimated scf accuracy    <     335.51636642 Ry

     iteration #  3     ecut=    50.00 Ry     beta= 0.30
     Davidson diagonalization with overlap

     total cpu time spent up to now is       96.2 secs

     total energy              =   -3713.44234624 Ry
     estimated scf accuracy    <     335.51636642 Ry

     iteration #  3     ecut=    50.00 Ry     beta= 0.30
     Davidson diagonalization with overlap
     ethr =  1.00E-02,  avg # of iterations = 13.0
     ethr =  1.00E-02,  avg # of iterations = 13.0

     negative rho (up, down):  6.018E-04 0.000E+00

     negative rho (up, down):  6.018E-04 0.000E+00

     total cpu time spent up to now is      130.6 secs

     total energy              =   -3732.21695284 Ry
     estimated scf accuracy    <      18.25126310 Ry

     iteration #  4     ecut=    50.00 Ry     beta= 0.30
     Davidson diagonalization with overlap

     total cpu time spent up to now is      131.3 secs

     total energy              =   -3732.21695284 Ry
     estimated scf accuracy    <      18.25126310 Ry

     iteration #  4     ecut=    50.00 Ry     beta= 0.30
     Davidson diagonalization with overlap
     ethr =  1.00E-02,  avg # of iterations = 10.0
     ethr =  1.00E-02,  avg # of iterations = 10.0

     negative rho (up, down):  8.840E-04 0.000E+00

     negative rho (up, down):  8.840E-04 0.000E+00

     total cpu time spent up to now is      153.7 secs

     total energy              =   -3732.82133167 Ry
     estimated scf accuracy    <       4.98126066 Ry

     iteration #  5     ecut=    50.00 Ry     beta= 0.30
     Davidson diagonalization with overlap

     total cpu time spent up to now is      154.5 secs

     total energy              =   -3732.82133167 Ry
     estimated scf accuracy    <       4.98126066 Ry

     iteration #  5     ecut=    50.00 Ry     beta= 0.30
     Davidson diagonalization with overlap
     ethr =  3.69E-03,  avg # of iterations =  1.0
     ethr =  3.69E-03,  avg # of iterations =  1.0

     negative rho (up, down):  4.724E-03 0.000E+00

     negative rho (up, down):  4.724E-03 0.000E+00

     total cpu time spent up to now is      174.5 secs

     total energy              =   -3732.21079051 Ry
     estimated scf accuracy    <       3.37774448 Ry

     iteration #  6     ecut=    50.00 Ry     beta= 0.30
     Davidson diagonalization with overlap

     total cpu time spent up to now is      175.4 secs

     total energy              =   -3732.21079051 Ry
     estimated scf accuracy    <       3.37774448 Ry

     iteration #  6     ecut=    50.00 Ry     beta= 0.30
     Davidson diagonalization with overlap
     ethr =  2.50E-03,  avg # of iterations =  4.0
     ethr =  2.50E-03,  avg # of iterations =  4.0

     negative rho (up, down):  2.693E-02 0.000E+00

     negative rho (up, down):  2.693E-02 0.000E+00

     total cpu time spent up to now is      197.4 secs

     total energy              =   -3732.45269131 Ry
     estimated scf accuracy    <       0.62991308 Ry

     iteration #  7     ecut=    50.00 Ry     beta= 0.30
     Davidson diagonalization with overlap

     total cpu time spent up to now is      198.5 secs

     total energy              =   -3732.45269131 Ry
     estimated scf accuracy    <       0.62991308 Ry

     iteration #  7     ecut=    50.00 Ry     beta= 0.30
     Davidson diagonalization with overlap
     ethr =  4.67E-04,  avg # of iterations = 11.0
     ethr =  4.67E-04,  avg # of iterations = 11.0

     negative rho (up, down):  2.287E-02 0.000E+00

     negative rho (up, down):  2.287E-02 0.000E+00

     total cpu time spent up to now is      228.2 secs

     total energy              =   -3732.95426827 Ry
     estimated scf accuracy    <       6.15016941 Ry

     iteration #  8     ecut=    50.00 Ry     beta= 0.30
     Davidson diagonalization with overlap

     total cpu time spent up to now is      229.5 secs

     total energy              =   -3732.95426827 Ry
     estimated scf accuracy    <       6.15016941 Ry

     iteration #  8     ecut=    50.00 Ry     beta= 0.30
     Davidson diagonalization with overlap
     ethr =  4.67E-04,  avg # of iterations =  2.0
     ethr =  4.67E-04,  avg # of iterations =  2.0

     negative rho (up, down):  1.944E-02 0.000E+00

     negative rho (up, down):  1.944E-02 0.000E+00

     total cpu time spent up to now is      249.7 secs

     total energy              =   -3732.68778345 Ry
     estimated scf accuracy    <       5.10974661 Ry

     iteration #  9     ecut=    50.00 Ry     beta= 0.30
     Davidson diagonalization with overlap

     total cpu time spent up to now is      251.0 secs

     total energy              =   -3732.68778345 Ry
     estimated scf accuracy    <       5.10974661 Ry

     iteration #  9     ecut=    50.00 Ry     beta= 0.30
     Davidson diagonalization with overlap
     ethr =  4.67E-04,  avg # of iterations =  8.0
     ethr =  4.67E-04,  avg # of iterations =  8.0

     negative rho (up, down):  3.110E-02 0.000E+00

     negative rho (up, down):  3.110E-02 0.000E+00

     total cpu time spent up to now is      275.1 secs

     total energy              =   -3732.76567355 Ry
     estimated scf accuracy    <       0.48587228 Ry

     iteration # 10     ecut=    50.00 Ry     beta= 0.30
     Davidson diagonalization with overlap

     total cpu time spent up to now is      276.8 secs

     total energy              =   -3732.76567355 Ry
     estimated scf accuracy    <       0.48587228 Ry

     iteration # 10     ecut=    50.00 Ry     beta= 0.30
     Davidson diagonalization with overlap
     ethr =  3.60E-04,  avg # of iterations =  6.0
     ethr =  3.60E-04,  avg # of iterations =  6.0

     negative rho (up, down):  4.321E-02 0.000E+00

     negative rho (up, down):  4.321E-02 0.000E+00

     total cpu time spent up to now is      298.7 secs

     total energy              =   -3732.83162389 Ry
     estimated scf accuracy    <       0.21309955 Ry

     iteration # 11     ecut=    50.00 Ry     beta= 0.30
     Davidson diagonalization with overlap

     total cpu time spent up to now is      300.5 secs

     total energy              =   -3732.83162389 Ry
     estimated scf accuracy    <       0.21309955 Ry

     iteration # 11     ecut=    50.00 Ry     beta= 0.30
     Davidson diagonalization with overlap
     ethr =  1.58E-04,  avg # of iterations =  2.0
     ethr =  1.58E-04,  avg # of iterations =  2.0

     negative rho (up, down):  6.058E-02 0.000E+00

     negative rho (up, down):  6.058E-02 0.000E+00

     total cpu time spent up to now is      320.7 secs

     total energy              =   -3732.83178291 Ry
     estimated scf accuracy    <       0.07328503 Ry

     iteration # 12     ecut=    50.00 Ry     beta= 0.30
     Davidson diagonalization with overlap

     total cpu time spent up to now is      322.2 secs

     total energy              =   -3732.83178291 Ry
     estimated scf accuracy    <       0.07328503 Ry

     iteration # 12     ecut=    50.00 Ry     beta= 0.30
     Davidson diagonalization with overlap
     ethr =  5.43E-05,  avg # of iterations =  6.0
     ethr =  5.43E-05,  avg # of iterations =  6.0

     negative rho (up, down):  6.797E-02 0.000E+00

     negative rho (up, down):  6.797E-02 0.000E+00

     total cpu time spent up to now is      346.6 secs

     total energy              =   -3732.84594885 Ry
     estimated scf accuracy    <       0.06954471 Ry

     iteration # 13     ecut=    50.00 Ry     beta= 0.30
     Davidson diagonalization with overlap

     total cpu time spent up to now is      348.2 secs

     total energy              =   -3732.84594885 Ry
     estimated scf accuracy    <       0.06954471 Ry

     iteration # 13     ecut=    50.00 Ry     beta= 0.30
     Davidson diagonalization with overlap
     ethr =  5.15E-05,  avg # of iterations =  3.0
     ethr =  5.15E-05,  avg # of iterations =  3.0

     negative rho (up, down):  7.315E-02 0.000E+00

     negative rho (up, down):  7.315E-02 0.000E+00

     total cpu time spent up to now is      368.7 secs

     total energy              =   -3732.84930185 Ry
     estimated scf accuracy    <       0.01294774 Ry

     iteration # 14     ecut=    50.00 Ry     beta= 0.30
     Davidson diagonalization with overlap

     total cpu time spent up to now is      370.6 secs

     total energy              =   -3732.84930185 Ry
     estimated scf accuracy    <       0.01294774 Ry

     iteration # 14     ecut=    50.00 Ry     beta= 0.30
     Davidson diagonalization with overlap
     ethr =  9.59E-06,  avg # of iterations =  7.0
     ethr =  9.59E-06,  avg # of iterations =  7.0

     negative rho (up, down):  7.597E-02 0.000E+00

     negative rho (up, down):  7.597E-02 0.000E+00

     total cpu time spent up to now is      396.5 secs

     total energy              =   -3732.85416442 Ry
     estimated scf accuracy    <       0.01389670 Ry

     iteration # 15     ecut=    50.00 Ry     beta= 0.30
     Davidson diagonalization with overlap

     total cpu time spent up to now is      398.2 secs

     total energy              =   -3732.85416442 Ry
     estimated scf accuracy    <       0.01389670 Ry

     iteration # 15     ecut=    50.00 Ry     beta= 0.30
     Davidson diagonalization with overlap
     ethr =  9.59E-06,  avg # of iterations =  2.0
     ethr =  9.59E-06,  avg # of iterations =  2.0

     negative rho (up, down):  7.735E-02 0.000E+00

     negative rho (up, down):  7.735E-02 0.000E+00

     total cpu time spent up to now is      418.1 secs

     total energy              =   -3732.85413327 Ry
     estimated scf accuracy    <       0.00837290 Ry

     iteration # 16     ecut=    50.00 Ry     beta= 0.30
     Davidson diagonalization with overlap

     total cpu time spent up to now is      420.0 secs

     total energy              =   -3732.85413327 Ry
     estimated scf accuracy    <       0.00837290 Ry

     iteration # 16     ecut=    50.00 Ry     beta= 0.30
     Davidson diagonalization with overlap
     ethr =  6.20E-06,  avg # of iterations =  2.0
     ethr =  6.20E-06,  avg # of iterations =  2.0

     negative rho (up, down):  7.977E-02 0.000E+00

     negative rho (up, down):  7.977E-02 0.000E+00

     total cpu time spent up to now is      440.3 secs

     total energy              =   -3732.85413117 Ry
     estimated scf accuracy    <       0.00478837 Ry

     iteration # 17     ecut=    50.00 Ry     beta= 0.30
     Davidson diagonalization with overlap

     total cpu time spent up to now is      442.1 secs

     total energy              =   -3732.85413117 Ry
     estimated scf accuracy    <       0.00478837 Ry

     iteration # 17     ecut=    50.00 Ry     beta= 0.30
     Davidson diagonalization with overlap
     ethr =  3.55E-06,  avg # of iterations =  5.0
     ethr =  3.55E-06,  avg # of iterations =  5.0

     negative rho (up, down):  7.998E-02 0.000E+00

     negative rho (up, down):  7.998E-02 0.000E+00

     total cpu time spent up to now is      464.6 secs

     total energy              =   -3732.85447924 Ry
     estimated scf accuracy    <       0.00419362 Ry

     iteration # 18     ecut=    50.00 Ry     beta= 0.30
     Davidson diagonalization with overlap

     total cpu time spent up to now is      466.3 secs

     total energy              =   -3732.85447924 Ry
     estimated scf accuracy    <       0.00419362 Ry

     iteration # 18     ecut=    50.00 Ry     beta= 0.30
     Davidson diagonalization with overlap
     ethr =  3.11E-06,  avg # of iterations =  2.0
     ethr =  3.11E-06,  avg # of iterations =  2.0

     negative rho (up, down):  8.128E-02 0.000E+00

     negative rho (up, down):  8.128E-02 0.000E+00

     total cpu time spent up to now is      486.6 secs

     total energy              =   -3732.85476184 Ry
     estimated scf accuracy    <       0.00107432 Ry

     iteration # 19     ecut=    50.00 Ry     beta= 0.30
     Davidson diagonalization with overlap

     total cpu time spent up to now is      488.3 secs

     total energy              =   -3732.85476184 Ry
     estimated scf accuracy    <       0.00107432 Ry

     iteration # 19     ecut=    50.00 Ry     beta= 0.30
     Davidson diagonalization with overlap
     ethr =  7.96E-07,  avg # of iterations =  5.0
     ethr =  7.96E-07,  avg # of iterations =  5.0

     negative rho (up, down):  8.191E-02 0.000E+00

     negative rho (up, down):  8.191E-02 0.000E+00

     total cpu time spent up to now is      512.2 secs

     total energy              =   -3732.85508842 Ry
     estimated scf accuracy    <       0.00119027 Ry

     iteration # 20     ecut=    50.00 Ry     beta= 0.30
     Davidson diagonalization with overlap

     total cpu time spent up to now is      513.7 secs

     total energy              =   -3732.85508842 Ry
     estimated scf accuracy    <       0.00119027 Ry

     iteration # 20     ecut=    50.00 Ry     beta= 0.30
     Davidson diagonalization with overlap
     ethr =  7.96E-07,  avg # of iterations =  2.0
     ethr =  7.96E-07,  avg # of iterations =  2.0

     negative rho (up, down):  8.229E-02 0.000E+00

     negative rho (up, down):  8.229E-02 0.000E+00

     total cpu time spent up to now is      534.0 secs

     total energy              =   -3732.85507184 Ry
     estimated scf accuracy    <       0.00057707 Ry

     iteration # 21     ecut=    50.00 Ry     beta= 0.30
     Davidson diagonalization with overlap

     total cpu time spent up to now is      535.4 secs

     total energy              =   -3732.85507184 Ry
     estimated scf accuracy    <       0.00057707 Ry

     iteration # 21     ecut=    50.00 Ry     beta= 0.30
     Davidson diagonalization with overlap
     ethr =  4.27E-07,  avg # of iterations =  5.0
     ethr =  4.27E-07,  avg # of iterations =  5.0

     negative rho (up, down):  8.194E-02 0.000E+00

     negative rho (up, down):  8.194E-02 0.000E+00

     total cpu time spent up to now is      557.3 secs

     total energy              =   -3732.85511518 Ry
     estimated scf accuracy    <       0.00026406 Ry

     iteration # 22     ecut=    50.00 Ry     beta= 0.30
     Davidson diagonalization with overlap

     total cpu time spent up to now is      558.4 secs

     total energy              =   -3732.85511518 Ry
     estimated scf accuracy    <       0.00026406 Ry

     iteration # 22     ecut=    50.00 Ry     beta= 0.30
     Davidson diagonalization with overlap
     ethr =  1.96E-07,  avg # of iterations =  6.0
     ethr =  1.96E-07,  avg # of iterations =  6.0

     negative rho (up, down):  8.252E-02 0.000E+00

     negative rho (up, down):  8.252E-02 0.000E+00

     total cpu time spent up to now is      583.6 secs

     total energy              =   -3732.85516539 Ry
     estimated scf accuracy    <       0.00048272 Ry

     iteration # 23     ecut=    50.00 Ry     beta= 0.30
     Davidson diagonalization with overlap

     total cpu time spent up to now is      584.6 secs

     total energy              =   -3732.85516539 Ry
     estimated scf accuracy    <       0.00048272 Ry

     iteration # 23     ecut=    50.00 Ry     beta= 0.30
     Davidson diagonalization with overlap
     ethr =  1.96E-07,  avg # of iterations =  2.0
     ethr =  1.96E-07,  avg # of iterations =  2.0

     negative rho (up, down):  8.266E-02 0.000E+00

     negative rho (up, down):  8.266E-02 0.000E+00

     total cpu time spent up to now is      605.9 secs

     total energy              =   -3732.85516817 Ry
     estimated scf accuracy    <       0.00016472 Ry

     iteration # 24     ecut=    50.00 Ry     beta= 0.30
     Davidson diagonalization with overlap

     total cpu time spent up to now is      606.8 secs

     total energy              =   -3732.85516817 Ry
     estimated scf accuracy    <       0.00016472 Ry

     iteration # 24     ecut=    50.00 Ry     beta= 0.30
     Davidson diagonalization with overlap
     ethr =  1.22E-07,  avg # of iterations =  5.0
     ethr =  1.22E-07,  avg # of iterations =  5.0

[...]
    -3.8335  -3.8333  -3.7928  -3.7925  -3.7577  -3.7563  -3.7047  -3.6984

     highest occupied, lowest unoccupied level (ev):    -3.7047   -3.6984

!    total energy              =   -3732.85520234 Ry
     total all-electron energy =   -175271.030122 Ry
     estimated scf accuracy    <       0.00000068 Ry

     The total energy is the sum of the following terms:
     one-electron contribution =   -1673.91566094 Ry
     hartree contribution      =     870.25906430 Ry
     xc contribution           =    -396.22707590 Ry
     ewald contribution        =     253.83308887 Ry
     DFT-D3 Dispersion         =      -0.08512392 Ry
     Hubbard energy            =       0.70286157 Ry
     one-center paw contrib.   =   -2787.42235632 Ry

     convergence has been achieved in  30 iterations

     Writing all to output data dir ./tmp/calc.save/

     total cpu time spent up to now is      772.8 secs

     End of self-consistent calculation

     ================= HUBBARD OCCUPATIONS ================
     ------------------------ ATOM    1 ------------------------
     Tr[ns(  1)] (up, down, total) =   2.85936  2.84461  5.70397
     eigenvalues:
       0.283  0.290  0.324  0.325  0.332  0.332  0.376  0.376  0.441  0.446  0.510  0.528  0.565  0.576
     eigenvectors (columns):
       0.046 -0.008  0.048 -0.045 -0.026 -0.034 -0.080  0.043 -0.043  0.098  0.157 -0.309 -0.068  0.009
      -0.265  0.521  0.054  0.122  0.006  0.031  0.068 -0.252 -0.006 -0.004  0.113  0.114 -0.152  0.126
      -0.047  0.051  0.001 -0.049 -0.139  0.054 -0.117  0.342  0.125  0.011 -0.036  0.048 -0.026  0.014
      -0.145  0.028 -0.474  0.251  0.112  0.095  0.014  0.009 -0.056  0.067  0.066 -0.062  0.020  0.025
      -0.003 -0.005 -0.076  0.002  0.012 -0.033  0.006  0.029 -0.087  0.044 -0.211  0.381 -0.061 -0.198
       0.239 -0.470 -0.025 -0.123  0.088 -0.094 -0.022  0.084 -0.084 -0.026  0.120  0.165 -0.112  0.072
       0.060 -0.159 -0.108 -0.025  0.038 -0.017  0.109 -0.328 -0.114 -0.035  0.010 -0.005  0.022 -0.019
      -0.029 -0.053  0.039  0.120 -0.016  0.113  0.032  0.251  0.578  0.213 -0.160 -0.245 -0.033  0.118
       0.481  0.235 -0.032  0.103 -0.032  0.034 -0.180 -0.037  0.016  0.043 -0.036  0.060  0.228  0.226
       0.091  0.047  0.342 -0.207  0.062  0.349  0.651  0.161  0.035 -0.292  0.045  0.032  0.090  0.074
       0.004  0.147 -0.004 -0.730  0.111 -0.311 -0.063  0.158  0.086  0.053 -0.000 -0.012 -0.009  0.014
      -0.006 -0.005  0.034  0.035 -0.020  0.019 -0.001  0.079  0.410  0.203  0.489  0.337  0.140 -0.254
      -0.423 -0.214 -0.052 -0.038  0.005 -0.153 -0.044 -0.010  0.032 -0.049 -0.002  0.084  0.284  0.252
      -0.139 -0.083  0.136 -0.254  0.374  0.710 -0.438 -0.148 -0.058  0.157 -0.039  0.053  0.030  0.015
     occupations, | n_(i1, i2)^(sigma1, sigma2) |:
       0.462  0.003  0.012  0.021  0.041  0.003  0.004  0.004  0.028  0.020  0.001  0.003  0.002  0.010
       0.003  0.423  0.030  0.002  0.005  0.125  0.012  0.024  0.004  0.002  0.013  0.021  0.001  0.000
       0.012  0.030  0.371  0.006  0.007  0.033  0.018  0.018  0.002  0.001  0.004  0.006  0.000  0.000
       0.021  0.002  0.006  0.328  0.016  0.003  0.000  0.002  0.014  0.005  0.000  0.002  0.006  0.001
       0.041  0.005  0.007  0.016  0.498  0.001  0.001  0.010  0.019  0.006  0.001  0.009  0.007  0.006
       0.003  0.125  0.033  0.003  0.001  0.434  0.017  0.003  0.001  0.000  0.006  0.007  0.000  0.000
       0.004  0.012  0.018  0.000  0.001  0.017  0.344  0.010  0.001  0.000  0.001  0.005  0.000  0.000
       0.004  0.024  0.018  0.002  0.010  0.003  0.010  0.453  0.009  0.009  0.021  0.037  0.003  0.004
       0.028  0.004  0.002  0.014  0.019  0.001  0.001  0.009  0.417  0.029  0.001  0.008  0.125  0.012
       0.020  0.002  0.001  0.005  0.006  0.000  0.000  0.009  0.029  0.371  0.005  0.005  0.033  0.018
       0.001  0.013  0.004  0.000  0.001  0.006  0.001  0.021  0.001  0.005  0.329  0.014  0.003  0.000
       0.003  0.021  0.006  0.002  0.009  0.007  0.005  0.037  0.008  0.005  0.014  0.496  0.002  0.001
       0.002  0.001  0.000  0.006  0.007  0.000  0.000  0.003  0.125  0.033  0.003  0.002  0.434  0.017
       0.010  0.000  0.000  0.001  0.006  0.000  0.000  0.004  0.012  0.018  0.000  0.001  0.017  0.344
     Atomic magnetic moment mx, my, mz =     0.028866    0.000771    0.014749
     ------------------------ ATOM    8 ------------------------
     Tr[ns(  8)] (up, down, total) =   2.26854  2.26368  4.53222
     eigenvalues:
       0.202  0.208  0.253  0.254  0.280  0.280  0.309  0.313  0.353  0.374  0.403  0.408  0.448  0.449
     eigenvectors (columns):
      -0.069 -0.067 -0.089  0.282 -0.028  0.004  0.210  0.179 -0.515  0.493 -0.120  0.109  0.165  0.019
      -0.258  0.295 -0.131 -0.040  0.028  0.047  0.271 -0.375  0.131  0.214 -0.070 -0.034  0.004  0.073
       0.435 -0.501 -0.081  0.010  0.053  0.054  0.095 -0.099  0.065  0.114  0.138  0.094  0.020 -0.127
      -0.060 -0.037 -0.095  0.300  0.012 -0.010 -0.069 -0.078  0.018 -0.215  0.100 -0.084 -0.150 -0.031
      -0.041 -0.043 -0.286  0.741 -0.014  0.008 -0.155 -0.098  0.119 -0.068  0.033 -0.050  0.064  0.013
      -0.322  0.389  0.017 -0.026  0.062  0.015 -0.077  0.061  0.076  0.104  0.298  0.202  0.040 -0.215
      -0.004 -0.005 -0.055 -0.044 -0.227 -0.138  0.134 -0.321  0.167  0.097  0.065  0.027 -0.006  0.014
       0.116 -0.096  0.199  0.047  0.074 -0.068 -0.292  0.116  0.543  0.609 -0.159 -0.100 -0.014 -0.138
       0.107  0.089 -0.011  0.035 -0.257  0.353  0.495  0.417  0.324 -0.069  0.024 -0.072 -0.195 -0.033
      -0.076 -0.053 -0.040  0.144 -0.159  0.236  0.253  0.209  0.160 -0.085 -0.037  0.086  0.408  0.049
       0.024 -0.033  0.180  0.015 -0.028  0.007  0.102 -0.119 -0.081 -0.202 -0.306 -0.178  0.042 -0.323
       0.110 -0.145  0.570  0.126  0.049  0.012  0.141 -0.144 -0.149 -0.107  0.240  0.140 -0.003  0.156
       0.082  0.062  0.028 -0.115 -0.022  0.021 -0.087 -0.054  0.052 -0.057 -0.104  0.205  0.592  0.062
       0.047  0.043 -0.055  0.075  0.415 -0.728  0.409  0.241  0.181 -0.130 -0.034  0.057  0.074  0.007
     occupations, | n_(i1, i2)^(sigma1, sigma2) |:
       0.348  0.008  0.005  0.006  0.033  0.002  0.002  0.012  0.020  0.025  0.003  0.004  0.006  0.007
       0.008  0.297  0.016  0.003  0.004  0.048  0.011  0.020  0.000  0.002  0.012  0.009  0.001  0.001
       0.005  0.016  0.294  0.001  0.003  0.091  0.015  0.024  0.001  0.003  0.017  0.010  0.002  0.000
       0.006  0.003  0.001  0.386  0.055  0.001  0.002  0.003  0.011  0.017  0.001  0.001  0.007  0.004
       0.033  0.004  0.003  0.055  0.288  0.001  0.001  0.006  0.009  0.009  0.002  0.002  0.005  0.002
       0.002  0.048  0.091  0.001  0.001  0.364  0.016  0.004  0.001  0.002  0.008  0.005  0.000  0.000
       0.002  0.011  0.015  0.002  0.001  0.016  0.292  0.007  0.001  0.000  0.004  0.002  0.000  0.000
       0.012  0.020  0.024  0.003  0.006  0.004  0.007  0.346  0.009  0.007  0.008  0.032  0.002  0.003
       0.020  0.000  0.001  0.011  0.009  0.001  0.001  0.009  0.297  0.016  0.002  0.005  0.048  0.011
       0.025  0.002  0.003  0.017  0.009  0.002  0.000  0.007  0.016  0.291  0.003  0.002  0.090  0.014
       0.003  0.012  0.017  0.001  0.002  0.008  0.004  0.008  0.002  0.003  0.386  0.055  0.000  0.002
       0.004  0.009  0.010  0.001  0.002  0.005  0.002  0.032  0.005  0.002  0.055  0.288  0.001  0.001
       0.006  0.001  0.002  0.007  0.005  0.000  0.000  0.002  0.048  0.090  0.000  0.001  0.364  0.016
       0.007  0.001  0.000  0.004  0.002  0.000  0.000  0.003  0.011  0.014  0.002  0.001  0.016  0.292
     Atomic magnetic moment mx, my, mz =     0.030908    0.011113    0.004863
     ------------------------ ATOM   15 ------------------------
     Tr[ns( 15)] (up, down, total) =   3.27281  3.27422  6.54703
     eigenvalues:
       0.349  0.349  0.365  0.369  0.392  0.395  0.442  0.448  0.518  0.521  0.566  0.568  0.632  0.634
     eigenvectors (columns):
       0.013 -0.032  0.036 -0.007  0.044  0.011  0.235  0.204 -0.304 -0.327  0.022 -0.038 -0.162 -0.106
      -0.086  0.225  0.078  0.054 -0.109 -0.287  0.264 -0.212  0.021 -0.045  0.018  0.080 -0.028 -0.003
       0.042 -0.154 -0.099 -0.326  0.278  0.174  0.059 -0.159  0.032 -0.004  0.074  0.274  0.046 -0.090
      -0.055  0.055 -0.261  0.173  0.134  0.247  0.045  0.017 -0.325 -0.266  0.086  0.015  0.225  0.163
       0.087 -0.073  0.418 -0.268  0.001 -0.478  0.173  0.102 -0.169 -0.182  0.144 -0.004  0.167  0.120
       0.018 -0.112 -0.073 -0.297  0.195 -0.036  0.270 -0.332  0.147 -0.194 -0.088 -0.312  0.029 -0.017
      -0.318  0.858  0.099 -0.082  0.046 -0.020 -0.011  0.012 -0.021  0.021  0.002 -0.016 -0.017  0.023
      -0.038 -0.008 -0.030 -0.010  0.040 -0.048 -0.250  0.197  0.271 -0.346 -0.197 -0.566 -0.088  0.114
       0.247  0.090  0.194 -0.182 -0.196  0.372  0.292  0.265  0.241  0.193 -0.018 -0.048  0.369  0.265
      -0.171 -0.042 -0.208  0.005 -0.164 -0.187 -0.306 -0.295 -0.137 -0.089 -0.039  0.008  0.470  0.329
       0.087  0.040  0.296  0.204  0.282  0.113 -0.122 -0.008  0.342 -0.352  0.104  0.471 -0.061  0.116
      -0.126 -0.046 -0.462 -0.281 -0.266 -0.251  0.015  0.118  0.121 -0.113  0.073  0.334  0.013  0.027
      -0.096 -0.013 -0.062 -0.098 -0.281  0.106  0.054  0.021 -0.096 -0.094 -0.002  0.032 -0.360 -0.245
       0.848  0.329 -0.179 -0.083 -0.090 -0.087 -0.216 -0.165 -0.137 -0.112 -0.061  0.012 -0.078 -0.056
     occupations, | n_(i1, i2)^(sigma1, sigma2) |:
       0.529  0.006  0.003  0.020  0.028  0.001  0.004  0.002  0.026  0.031  0.002  0.005  0.004  0.011
       0.006  0.470  0.064  0.005  0.004  0.062  0.033  0.027  0.000  0.001  0.011  0.014  0.000  0.001
       0.003  0.064  0.498  0.003  0.001  0.076  0.003  0.030  0.001  0.000  0.027  0.013  0.000  0.001
       0.020  0.005  0.003  0.497  0.077  0.000  0.002  0.002  0.011  0.027  0.001  0.001  0.007  0.002
       0.028  0.004  0.001  0.077  0.435  0.001  0.000  0.003  0.013  0.016  0.002  0.005  0.011  0.005
       0.001  0.062  0.076  0.000  0.001  0.478  0.031  0.004  0.001  0.000  0.007  0.012  0.000  0.001
       0.004  0.033  0.003  0.002  0.000  0.031  0.366  0.011  0.001  0.001  0.002  0.005  0.001  0.000
       0.002  0.027  0.030  0.002  0.003  0.004  0.011  0.532  0.008  0.003  0.021  0.029  0.002  0.004
       0.026  0.000  0.001  0.011  0.013  0.001  0.001  0.008  0.470  0.065  0.005  0.006  0.061  0.033
       0.031  0.001  0.000  0.027  0.016  0.000  0.001  0.003  0.065  0.497  0.004  0.002  0.076  0.003
       0.002  0.011  0.027  0.001  0.002  0.007  0.002  0.021  0.005  0.004  0.497  0.078  0.000  0.002
       0.005  0.014  0.013  0.001  0.005  0.012  0.005  0.029  0.006  0.002  0.078  0.435  0.002  0.000
       0.004  0.000  0.000  0.007  0.011  0.000  0.001  0.002  0.061  0.076  0.000  0.002  0.478  0.031
       0.011  0.001  0.001  0.002  0.005  0.001  0.000  0.004  0.033  0.003  0.002  0.000  0.031  0.366
     Atomic magnetic moment mx, my, mz =     0.013937    0.002436   -0.001410

     Number of occupied Hubbard levels =   16.7832

          k = 0.0000 0.0000 0.0000 ( 47833 PWs)   bands (ev):

   -65.0789 -65.0789 -46.3469 -46.3468 -44.4111 -44.4111 -33.1678 -33.1676
   -32.4885 -32.4867 -31.0205 -31.0204 -25.0576 -25.0575 -24.3083 -24.3083
   -24.2805 -24.2805 -24.2737 -24.2737 -24.2617 -24.2617 -24.2364 -24.2364
   -24.2127 -24.2127 -20.3931 -20.3928 -20.2775 -20.2775 -20.2649 -20.2649
   -20.2414 -20.2414 -20.2156 -20.2156 -20.1978 -20.1978 -19.7285 -19.7274
   -18.6227 -18.6218 -15.4134 -15.4131 -14.0467 -14.0466 -13.6857 -13.6855
   -11.4784 -11.4737 -11.2614 -11.2596 -10.6216 -10.6211 -10.1099 -10.1096
   -10.0773 -10.0768 -10.0438 -10.0435  -9.9883  -9.9882  -9.8927  -9.8919
    -9.7718  -9.7717  -8.9341  -8.9338  -8.9024  -8.9024  -8.8863  -8.8862
    -8.8716  -8.8715  -8.8494  -8.8494  -8.8289  -8.8289  -8.8215  -8.8214
    -8.8077  -8.8077  -8.8002  -8.8002  -8.7648  -8.7648  -8.7540  -8.7540
    -8.7320  -8.7319  -8.0104  -8.0098  -7.9354  -7.9353  -7.9084  -7.9084
    -7.8659  -7.8657  -7.8469  -7.8468  -7.7975  -7.7974  -6.3694  -6.3632
    -5.7954  -5.7862  -5.2387  -5.2361  -4.8941  -4.8831  -4.5911  -4.5822
    -4.2735  -4.2717  -4.1635  -4.1632  -4.1064  -4.1063  -4.0353  -4.0322
    -3.9749  -3.9746  -3.9511  -3.9498  -3.9114  -3.9110  -3.8509  -3.8504
    -3.8335  -3.8333  -3.7928  -3.7925  -3.7577  -3.7563  -3.7047  -3.6984

     highest occupied, lowest unoccupied level (ev):    -3.7047   -3.6984

!    total energy              =   -3732.85520234 Ry
     total all-electron energy =   -175271.030122 Ry
     estimated scf accuracy    <       0.00000068 Ry

     The total energy is the sum of the following terms:
     one-electron contribution =   -1673.91566094 Ry
     hartree contribution      =     870.25906430 Ry
     xc contribution           =    -396.22707590 Ry
     ewald contribution        =     253.83308887 Ry
     DFT-D3 Dispersion         =      -0.08512392 Ry
     Hubbard energy            =       0.70286157 Ry
     one-center paw contrib.   =   -2787.42235632 Ry

     convergence has been achieved in  30 iterations
 
     init_run     :     20.44s CPU     22.32s WALL (       1 calls)
     electrons    :    709.43s CPU    740.21s WALL (       1 calls)

     Called by init_run:
     wfcinit      :     10.61s CPU     11.72s WALL (       1 calls)
                                       11.72s GPU  (       1 calls)
     potinit      :      5.63s CPU      5.75s WALL (       1 calls)
     hinit0       :      2.72s CPU      2.77s WALL (       1 calls)

     Called by electrons:
     c_bands      :    367.78s CPU    389.18s WALL (      30 calls)
     sum_band     :    120.28s CPU    120.34s WALL (      30 calls)
     v_of_rho     :      1.88s CPU      1.95s WALL (      31 calls)
     newd         :     43.08s CPU     52.16s WALL (      31 calls)
                                       52.16s GPU  (      31 calls)
     PAW_pot      :    167.33s CPU    167.35s WALL (      31 calls)
     mix_rho      :     14.40s CPU     14.82s WALL (      30 calls)
     energy_dftd3 :      0.06s CPU      0.06s WALL (       1 calls)

     Called by c_bands:
     init_us_2    :      0.13s CPU      0.13s WALL (      62 calls)
     init_us_2:gp :      0.13s CPU      0.13s WALL (      62 calls)
     cegterg      :    362.08s CPU    383.41s WALL (      30 calls)

     Called by *egterg:
     cdiaghg      :      2.46s CPU      2.63s WALL (     173 calls)
                                        2.62s GPU  (     173 calls)
     h_psi        :    290.20s CPU    311.67s WALL (     173 calls)
                                      311.61s GPU  (     173 calls)
     s_psi        :      1.36s CPU     23.41s WALL (     174 calls)
                                       22.75s GPU  (     174 calls)
     g_psi        :      0.00s CPU      0.27s WALL (     142 calls)
                                        0.27s GPU  (     142 calls)

     Called by h_psi:
     h_psi:calbec :      0.02s CPU     21.74s WALL (     173 calls)
                                       21.74s GPU  (     173 calls)
     vloc_psi     :     76.47s CPU     76.60s WALL (     173 calls)
                                       76.60s GPU  (     173 calls)
     add_vuspsi   :      0.42s CPU     13.93s WALL (     173 calls)
                                       13.93s GPU  (     173 calls)
     vhpsi        :    172.26s CPU    172.25s WALL (     173 calls)

     General routines
     calbec       :      0.02s CPU      0.02s WALL (     204 calls)
     fft          :      0.01s CPU      0.48s WALL (     521 calls)
                                        0.47s GPU  (     521 calls)
     ffts         :      0.00s CPU      0.10s WALL (     120 calls)
                                        0.10s GPU  (     120 calls)
     fftw         :      0.89s CPU     47.17s WALL (   52188 calls)
                                       46.86s GPU  (   52188 calls)
 

     Hubbard U routines
     new_ns_nc    :     32.16s CPU     32.16s WALL (      30 calls)
     vhpsi        :    172.26s CPU    172.25s WALL (     173 calls)
 
     PWSCF        :  12m19.89s CPU  12m52.96s WALL

 
   This run was terminated on:  13:10:46   4Apr2026            

=------------------------------------------------------------------------------=
   JOB DONE.
=------------------------------------------------------------------------------=
Warning: ieee_invalid is signaling
Warning: ieee_divide_by_zero is signaling
Warning: ieee_underflow is signaling
Warning: ieee_inexact is signaling
FORTRAN STOP

     Writing all to output data dir ./tmp/calc.save/
 
     init_run     :     20.72s CPU     22.63s WALL (       1 calls)
     electrons    :    709.40s CPU    740.15s WALL (       1 calls)

     Called by init_run:
     wfcinit      :     10.68s CPU     11.82s WALL (       1 calls)
                                       11.82s GPU  (       1 calls)
     potinit      :      5.75s CPU      5.87s WALL (       1 calls)
     hinit0       :      2.80s CPU      2.85s WALL (       1 calls)

     Called by electrons:
     c_bands      :    367.46s CPU    388.72s WALL (      30 calls)
     sum_band     :    120.56s CPU    120.61s WALL (      30 calls)
     v_of_rho     :      1.87s CPU      1.95s WALL (      31 calls)
     newd         :     43.85s CPU     52.98s WALL (      31 calls)
                                       52.98s GPU  (      31 calls)
     PAW_pot      :    166.89s CPU    166.92s WALL (      31 calls)
     mix_rho      :     14.20s CPU     14.63s WALL (      30 calls)
     energy_dftd3 :      0.06s CPU      0.06s WALL (       1 calls)

     Called by c_bands:
     init_us_2    :      0.13s CPU      0.13s WALL (      62 calls)
     init_us_2:gp :      0.12s CPU      0.13s WALL (      62 calls)
     cegterg      :    361.74s CPU    382.95s WALL (      30 calls)

     Called by *egterg:
     cdiaghg      :      2.46s CPU      2.62s WALL (     173 calls)
                                        2.62s GPU  (     173 calls)
     h_psi        :    289.98s CPU    311.33s WALL (     173 calls)
                                      311.27s GPU  (     173 calls)
     s_psi        :      1.35s CPU     23.35s WALL (     174 calls)
                                       22.69s GPU  (     174 calls)
     g_psi        :      0.00s CPU      0.27s WALL (     142 calls)
                                        0.27s GPU  (     142 calls)

     Called by h_psi:
     h_psi:calbec :      0.02s CPU     21.71s WALL (     173 calls)
                                       21.71s GPU  (     173 calls)
     vloc_psi     :     76.84s CPU     77.00s WALL (     173 calls)
                                       77.00s GPU  (     173 calls)
     add_vuspsi   :      0.42s CPU     13.92s WALL (     173 calls)
                                       13.92s GPU  (     173 calls)
     vhpsi        :    171.80s CPU    171.81s WALL (     173 calls)

     General routines
     calbec       :      0.02s CPU      0.02s WALL (     204 calls)
     fft          :      0.01s CPU      0.48s WALL (     521 calls)
                                        0.48s GPU  (     521 calls)
     ffts         :      0.00s CPU      0.10s WALL (     120 calls)
                                        0.10s GPU  (     120 calls)
     fftw         :      0.90s CPU     47.43s WALL (   52188 calls)
                                       47.13s GPU  (   52188 calls)
 

     Hubbard U routines
     new_ns_nc    :     31.32s CPU     31.31s WALL (      30 calls)
     vhpsi        :    171.80s CPU    171.81s WALL (     173 calls)
 
     PWSCF        :  12m20.51s CPU  12m53.75s WALL

 
   This run was terminated on:  13:10:47   4Apr2026            

=------------------------------------------------------------------------------=
   JOB DONE.
=------------------------------------------------------------------------------=
Warning: ieee_invalid is signaling
Warning: ieee_divide_by_zero is signaling
Warning: ieee_underflow is signaling
Warning: ieee_inexact is signaling
FORTRAN STOP
